
.Version 9.4.2 of ABINIT 
.(MPI version, prepared for a x86_64_linux_gnu9.3 computer) 

.Copyright (C) 1998-2021 ABINIT group . 
 ABINIT comes with ABSOLUTELY NO WARRANTY.
 It is free software, and you are welcome to redistribute it
 under certain conditions (GNU General Public License,
 see ~abinit/COPYING or http://www.gnu.org/copyleft/gpl.txt).

 ABINIT is a project of the Universite Catholique de Louvain,
 Corning Inc. and other collaborators, see ~abinit/doc/developers/contributors.txt .
 Please read https://docs.abinit.org/theory/acknowledgments for suggested
 acknowledgments of the ABINIT effort.
 For more information, see https://www.abinit.org .

.Starting date : Wed 25 Aug 2021.
- ( at 12h06 )
  
- input  file    -> gaasgga.abi
- output file    -> gaasgga.abo
- root for input  files -> gaasggai
- root for output files -> gaasggao


 DATASET    1 : space group F-4 3 m (#216); Bravais cF (face-center cubic)
================================================================================
 Values of the parameters that define the memory need for DATASET  1.
     intxc =       0    ionmov =       0      iscf =       7    lmnmax =      10
     lnmax =      10     mgfft =      32  mpssoang =       3    mqgrid =    3001
     natom =       2  nloc_mem =       1    nspden =       1   nspinor =       1
    nsppol =       1      nsym =      24    n1xccc =    2501    ntypat =       2
    occopt =       1   xclevel =       2
-    mband =          16        mffmem =           1         mkmem =          60
       mpw =        1387          nfft =       32768          nkpt =          60
================================================================================
P This job should need less than                      33.350 Mbytes of memory.
  Rough estimation (10% accuracy) of disk space for files :
_ WF disk file :     20.319 Mbytes ; DEN or POT disk file :      0.252 Mbytes.
================================================================================


 DATASET    2 : space group F-4 3 m (#216); Bravais cF (face-center cubic)
================================================================================
 Values of the parameters that define the memory need for DATASET  2.
     intxc =       0    ionmov =       0      iscf =      -2    lmnmax =      10
     lnmax =      10     mgfft =      32  mpssoang =       3    mqgrid =    3001
     natom =       2  nloc_mem =       1    nspden =       1   nspinor =       1
    nsppol =       1      nsym =      24    n1xccc =    2501    ntypat =       2
    occopt =       1   xclevel =       2
-    mband =          16        mffmem =           1         mkmem =          63
       mpw =        1391          nfft =       32768          nkpt =          63
================================================================================
P This job should need less than                      30.229 Mbytes of memory.
  Rough estimation (10% accuracy) of disk space for files :
_ WF disk file :     21.397 Mbytes ; DEN or POT disk file :      0.252 Mbytes.
================================================================================

--------------------------------------------------------------------------------
------------- Echo of variables that govern the present computation ------------
--------------------------------------------------------------------------------
-
- outvars: echo of selected default values                                      
-   iomode0 =  0 , fftalg0 =112 , wfoptalg0 =  0
-
- outvars: echo of global parameters not present in the input file              
-  max_nthreads =    0
-
 -outvars: echo values of preprocessed input variables --------
            acell      1.0000000000E+00  1.0000000000E+00  1.0000000000E+00 Bohr
              amu      6.97230000E+01  7.49215900E+01
      chksymbreak           0
             ecut      2.00000000E+01 Hartree
           enunit1          0
           enunit2          1
-          fftalg         112
           getden1          0
           getden2         -1
             iscf1          7
             iscf2         -2
           istwfk2       0    0    0    0    0    0    0    0    0    0
                         0    0    0    0    0    0    0    0    0    0
                         0    0    0    0    2    0    0    0    0    0
                         0    0    0    0    0    0    0    0    0    0
                         0    0    0    0    0    0    0    0    0    0
                       outvar_i_n : Printing only first  50 k-points.
              ixc          23
           jdtset        1    2
              kpt1     6.25000000E-02  6.25000000E-02  6.25000000E-02
                       1.87500000E-01  6.25000000E-02  6.25000000E-02
                       3.12500000E-01  6.25000000E-02  6.25000000E-02
                       4.37500000E-01  6.25000000E-02  6.25000000E-02
                      -4.37500000E-01  6.25000000E-02  6.25000000E-02
                      -3.12500000E-01  6.25000000E-02  6.25000000E-02
                      -1.87500000E-01  6.25000000E-02  6.25000000E-02
                      -6.25000000E-02  6.25000000E-02  6.25000000E-02
                       1.87500000E-01  1.87500000E-01  6.25000000E-02
                       3.12500000E-01  1.87500000E-01  6.25000000E-02
                       4.37500000E-01  1.87500000E-01  6.25000000E-02
                      -4.37500000E-01  1.87500000E-01  6.25000000E-02
                      -3.12500000E-01  1.87500000E-01  6.25000000E-02
                      -1.87500000E-01  1.87500000E-01  6.25000000E-02
                      -6.25000000E-02  1.87500000E-01  6.25000000E-02
                       3.12500000E-01  3.12500000E-01  6.25000000E-02
                       4.37500000E-01  3.12500000E-01  6.25000000E-02
                      -4.37500000E-01  3.12500000E-01  6.25000000E-02
                      -3.12500000E-01  3.12500000E-01  6.25000000E-02
                      -1.87500000E-01  3.12500000E-01  6.25000000E-02
                      -6.25000000E-02  3.12500000E-01  6.25000000E-02
                       4.37500000E-01  4.37500000E-01  6.25000000E-02
                      -4.37500000E-01  4.37500000E-01  6.25000000E-02
                      -3.12500000E-01  4.37500000E-01  6.25000000E-02
                      -1.87500000E-01  4.37500000E-01  6.25000000E-02
                      -6.25000000E-02  4.37500000E-01  6.25000000E-02
                      -4.37500000E-01 -4.37500000E-01  6.25000000E-02
                      -3.12500000E-01 -4.37500000E-01  6.25000000E-02
                      -1.87500000E-01 -4.37500000E-01  6.25000000E-02
                      -3.12500000E-01 -3.12500000E-01  6.25000000E-02
                      -1.87500000E-01 -3.12500000E-01  6.25000000E-02
                      -1.87500000E-01 -1.87500000E-01  6.25000000E-02
                       1.87500000E-01  1.87500000E-01  1.87500000E-01
                       3.12500000E-01  1.87500000E-01  1.87500000E-01
                       4.37500000E-01  1.87500000E-01  1.87500000E-01
                      -4.37500000E-01  1.87500000E-01  1.87500000E-01
                      -3.12500000E-01  1.87500000E-01  1.87500000E-01
                      -1.87500000E-01  1.87500000E-01  1.87500000E-01
                       3.12500000E-01  3.12500000E-01  1.87500000E-01
                       4.37500000E-01  3.12500000E-01  1.87500000E-01
                      -4.37500000E-01  3.12500000E-01  1.87500000E-01
                      -3.12500000E-01  3.12500000E-01  1.87500000E-01
                      -1.87500000E-01  3.12500000E-01  1.87500000E-01
                       4.37500000E-01  4.37500000E-01  1.87500000E-01
                      -4.37500000E-01  4.37500000E-01  1.87500000E-01
                      -3.12500000E-01  4.37500000E-01  1.87500000E-01
                      -1.87500000E-01  4.37500000E-01  1.87500000E-01
                      -4.37500000E-01 -4.37500000E-01  1.87500000E-01
                      -3.12500000E-01 -4.37500000E-01  1.87500000E-01
                      -3.12500000E-01 -3.12500000E-01  1.87500000E-01
              kpt2    -5.00000000E-01 -5.00000000E-01 -5.00000000E-01
                      -4.79166667E-01 -4.79166667E-01 -4.79166667E-01
                      -4.58333333E-01 -4.58333333E-01 -4.58333333E-01
                      -4.37500000E-01 -4.37500000E-01 -4.37500000E-01
                      -4.16666667E-01 -4.16666667E-01 -4.16666667E-01
                      -3.95833333E-01 -3.95833333E-01 -3.95833333E-01
                      -3.75000000E-01 -3.75000000E-01 -3.75000000E-01
                      -3.54166667E-01 -3.54166667E-01 -3.54166667E-01
                      -3.33333333E-01 -3.33333333E-01 -3.33333333E-01
                      -3.12500000E-01 -3.12500000E-01 -3.12500000E-01
                      -2.91666667E-01 -2.91666667E-01 -2.91666667E-01
                      -2.70833333E-01 -2.70833333E-01 -2.70833333E-01
                      -2.50000000E-01 -2.50000000E-01 -2.50000000E-01
                      -2.29166667E-01 -2.29166667E-01 -2.29166667E-01
                      -2.08333333E-01 -2.08333333E-01 -2.08333333E-01
                      -1.87500000E-01 -1.87500000E-01 -1.87500000E-01
                      -1.66666667E-01 -1.66666667E-01 -1.66666667E-01
                      -1.45833333E-01 -1.45833333E-01 -1.45833333E-01
                      -1.25000000E-01 -1.25000000E-01 -1.25000000E-01
                      -1.04166667E-01 -1.04166667E-01 -1.04166667E-01
                      -8.33333333E-02 -8.33333333E-02 -8.33333333E-02
                      -6.25000000E-02 -6.25000000E-02 -6.25000000E-02
                      -4.16666667E-02 -4.16666667E-02 -4.16666667E-02
                      -2.08333333E-02 -2.08333333E-02 -2.08333333E-02
                       0.00000000E+00  0.00000000E+00  0.00000000E+00
                       1.78571429E-02  0.00000000E+00  1.78571429E-02
                       3.57142857E-02  0.00000000E+00  3.57142857E-02
                       5.35714286E-02  0.00000000E+00  5.35714286E-02
                       7.14285714E-02  0.00000000E+00  7.14285714E-02
                       8.92857143E-02  0.00000000E+00  8.92857143E-02
                       1.07142857E-01  0.00000000E+00  1.07142857E-01
                       1.25000000E-01  0.00000000E+00  1.25000000E-01
                       1.42857143E-01  0.00000000E+00  1.42857143E-01
                       1.60714286E-01  0.00000000E+00  1.60714286E-01
                       1.78571429E-01  0.00000000E+00  1.78571429E-01
                       1.96428571E-01  0.00000000E+00  1.96428571E-01
                       2.14285714E-01  0.00000000E+00  2.14285714E-01
                       2.32142857E-01  0.00000000E+00  2.32142857E-01
                       2.50000000E-01  0.00000000E+00  2.50000000E-01
                       2.67857143E-01  0.00000000E+00  2.67857143E-01
                       2.85714286E-01  0.00000000E+00  2.85714286E-01
                       3.03571429E-01  0.00000000E+00  3.03571429E-01
                       3.21428571E-01  0.00000000E+00  3.21428571E-01
                       3.39285714E-01  0.00000000E+00  3.39285714E-01
                       3.57142857E-01  0.00000000E+00  3.57142857E-01
                       3.75000000E-01  0.00000000E+00  3.75000000E-01
                       3.92857143E-01  0.00000000E+00  3.92857143E-01
                       4.10714286E-01  0.00000000E+00  4.10714286E-01
                       4.28571429E-01  0.00000000E+00  4.28571429E-01
                       4.46428571E-01  0.00000000E+00  4.46428571E-01
                       outvar_i_n : Printing only first  50 k-points.
           kptopt1          1
           kptopt2         -3
         kptrlatt        8    0    0      0    8    0      0    0    8
          kptrlen1     6.14690114E+01
          kptrlen2     3.00000000E+01
P           mkmem1         60
P           mkmem2         63
            natom           2
            nband1         16
            nband2         16
           nbdbuf1          0
           nbdbuf2          2
           ndtset           2
           ndivsm1          0
           ndivsm2         10
            ngfft          32      32      32
             nkpt1         60
             nkpt2         63
             nsym          24
           ntypat           2
              occ      2.000000  2.000000  2.000000  2.000000  0.000000  0.000000
                       0.000000  0.000000  0.000000  0.000000  0.000000  0.000000
                       0.000000  0.000000  0.000000  0.000000
            rprim      6.6542156753E+00  0.0000000000E+00  3.8418132114E+00
                       2.2180718918E+00  6.2736547033E+00  3.8418132114E+00
                       0.0000000000E+00  0.0000000000E+00  7.6836264227E+00
           shiftk      5.00000000E-01  5.00000000E-01  5.00000000E-01
          spgroup         216
           symrel      1  0  0   0  1  0   0  0  1       0 -1  1   0 -1  0   1 -1  0
                      -1  0  0  -1  0  1  -1  1  0       0  1 -1   1  0 -1   0  0 -1
                      -1  0  0  -1  1  0  -1  0  1       0 -1  1   1 -1  0   0 -1  0
                       1  0  0   0  0  1   0  1  0       0  1 -1   0  0 -1   1  0 -1
                      -1  0  1  -1  1  0  -1  0  0       0 -1  0   1 -1  0   0 -1  1
                       1  0 -1   0  0 -1   0  1 -1       0  1  0   0  0  1   1  0  0
                       1  0 -1   0  1 -1   0  0 -1       0 -1  0   0 -1  1   1 -1  0
                      -1  0  1  -1  0  0  -1  1  0       0  1  0   1  0  0   0  0  1
                       0  0 -1   0  1 -1   1  0 -1       1 -1  0   0 -1  1   0 -1  0
                       0  0  1   1  0  0   0  1  0      -1  1  0  -1  0  0  -1  0  1
                       0  0  1   0  1  0   1  0  0       1 -1  0   0 -1  0   0 -1  1
                       0  0 -1   1  0 -1   0  1 -1      -1  1  0  -1  0  1  -1  0  0
           toldfe1     1.00000000E-06 Hartree
           toldfe2     0.00000000E+00 Hartree
           tolwfr1     0.00000000E+00
           tolwfr2     1.00000000E-12
            typat      1  2
              wtk1       0.00391    0.01172    0.01172    0.01172    0.01172    0.01172
                         0.01172    0.01172    0.01172    0.02344    0.02344    0.02344
                         0.02344    0.02344    0.02344    0.01172    0.02344    0.02344
                         0.02344    0.02344    0.02344    0.01172    0.02344    0.02344
                         0.02344    0.02344    0.01172    0.02344    0.02344    0.01172
                         0.02344    0.01172    0.00391    0.01172    0.01172    0.01172
                         0.01172    0.01172    0.01172    0.02344    0.02344    0.02344
                         0.02344    0.01172    0.02344    0.02344    0.02344    0.01172
                         0.02344    0.01172
              wtk2       1.00000    1.00000    1.00000    1.00000    1.00000    1.00000
                         1.00000    1.00000    1.00000    1.00000    1.00000    1.00000
                         1.00000    1.00000    1.00000    1.00000    1.00000    1.00000
                         1.00000    1.00000    1.00000    1.00000    1.00000    1.00000
                         1.00000    1.00000    1.00000    1.00000    1.00000    1.00000
                         1.00000    1.00000    1.00000    1.00000    1.00000    1.00000
                         1.00000    1.00000    1.00000    1.00000    1.00000    1.00000
                         1.00000    1.00000    1.00000    1.00000    1.00000    1.00000
                         1.00000    1.00000
                       outvars : Printing only first  50 k-points.
           xangst      0.0000000000E+00  0.0000000000E+00  0.0000000000E+00
                       3.5212592764E+00  2.4899063127E+00  6.0989999734E+00
            xcart      0.0000000000E+00  0.0000000000E+00  0.0000000000E+00
                       6.6542156753E+00  4.7052410275E+00  1.1525439634E+01
             xred      0.0000000000E+00  0.0000000000E+00  0.0000000000E+00
                       7.5000000000E-01  7.5000000000E-01  7.5000000000E-01
            znucl       31.00000   33.00000

================================================================================

 chkinp: Checking input parameters for consistency, jdtset=   1.

 chkinp: Checking input parameters for consistency, jdtset=   2.

================================================================================
== DATASET  1 ==================================================================
-   mpi_nproc: 1, omp_nthreads: -1 (-1 if OMP is not activated)


--- !DatasetInfo
iteration_state: {dtset: 1, }
dimensions: {natom: 2, nkpt: 60, mband: 16, nsppol: 1, nspinor: 1, nspden: 1, mpw: 1387, }
cutoff_energies: {ecut:  20.0, pawecutdg:  -1.0, }
electrons: {nelect:   8.00000000E+00, charge:   0.00000000E+00, occopt:   1.00000000E+00, tsmear:   1.00000000E-02, }
meta: {optdriver: 0, ionmov: 0, optcell: 0, iscf: 7, paral_kgb: 0, }
...

 Exchange-correlation functional for the present dataset will be:
  GGA: Wu Cohen functional - ixc=23
 Citation for XC functional:
  Z. Wu and R. E. Cohen, PRB 73, 235116 (2006)

 Real(R)+Recip(G) space primitive vectors, cartesian coordinates (Bohr,Bohr^-1):
 R(1)=  6.6542157  0.0000000  3.8418132  G(1)=  0.1502807 -0.0531322  0.0000000
 R(2)=  2.2180719  6.2736547  3.8418132  G(2)=  0.0000000  0.1593967  0.0000000
 R(3)=  0.0000000  0.0000000  7.6836264  G(3)= -0.0751403 -0.0531322  0.1301469
 Unit cell volume ucvol=  3.2076260E+02 bohr^3
 Angles (23,13,12)=  6.00000000E+01  6.00000000E+01  6.00000000E+01 degrees

 getcut: wavevector=  0.0000  0.0000  0.0000  ngfft=  32  32  32
         ecut(hartree)=     20.000   => boxcut(ratio)=   2.06873

--- Pseudopotential description ------------------------------------------------
- pspini: atom type   1  psp file is /home/varre/sp/Ga-low_r.psp8
- pspatm: opening atomic psp file    /home/varre/sp/Ga-low_r.psp8
- Ga    ONCVPSP-3.3.0  r_core=   1.85767   1.81388   2.62545
- 31.00000   3.00000    171209                znucl, zion, pspdat
    8   11    2    4       600   0.00000      pspcod,pspxc,lmax,lloc,mmax,r2well
    5.99000000000000    0.50000000000000    0.00000000000000   rchrg,fchrg,qchrg
     nproj     2     4     4
     spin-orbit psp, extension_switch     3
        nprojso     4     4
  pspatm : epsatm=   -2.66354688
         --- l  ekb(1:nproj) -->
             0    0.677163    6.438134
             1    3.852365    0.585309    0.004713    0.000025
             2    1.419515    0.234179    0.000299    0.000044
  spin-orbit 1
  spin-orbit 1
  spin-orbit 1
  spin-orbit 1
  spin-orbit 2
  spin-orbit 2
  spin-orbit 2
  spin-orbit 2
 pspatm: atomic psp has been read  and splines computed

- pspini: atom type   2  psp file is /home/varre/sp/As_r.psp8
- pspatm: opening atomic psp file    /home/varre/sp/As_r.psp8
- As    ONCVPSP-3.3.0  r_core=   1.85233   1.80867   2.40819
- 33.00000   5.00000    171209                znucl, zion, pspdat
    8   11    2    4       600   0.00000      pspcod,pspxc,lmax,lloc,mmax,r2well
    5.99000000000000    8.00000000000000    0.00000000000000   rchrg,fchrg,qchrg
     nproj     2     3     3
     spin-orbit psp, extension_switch     3
        nprojso     4     4
  pspatm : epsatm=    6.70888588
         --- l  ekb(1:nproj) -->
             0    0.898236    8.546793
             1    4.716430    0.646929    0.003314
             2    1.309789    0.275332    0.000180
  spin-orbit 1
  spin-orbit 1
  spin-orbit 1
  spin-orbit 1
  spin-orbit 2
  spin-orbit 2
  spin-orbit 2
  spin-orbit 2
 pspatm: atomic psp has been read  and splines computed

   3.23627120E+01                                ecore*ucvol(ha*bohr**3)
--------------------------------------------------------------------------------

_setup2: Arith. and geom. avg. npw (full set) are    1369.898    1369.887

================================================================================

--- !BeginCycle
iteration_state: {dtset: 1, }
solver: {iscf: 7, nstep: 30, nline: 4, wfoptalg: 0, }
tolerances: {toldfe: 1.00E-06, }
...

     iter   Etot(hartree)      deltaE(h)  residm     vres2
 ETOT  1  -11.281743626424    -1.128E+01 5.226E-02 1.487E+01
 ETOT  2  -11.291057817879    -9.314E-03 7.131E-03 6.172E-01
 ETOT  3  -11.291225605488    -1.678E-04 8.171E-03 7.389E-03
 ETOT  4  -11.291226884535    -1.279E-06 2.675E-03 4.584E-04
 ETOT  5  -11.291226924901    -4.037E-08 1.570E-03 1.657E-05
 ETOT  6  -11.291226926248    -1.347E-09 4.485E-04 1.299E-07

 At SCF step    6, etot is converged : 
  for the second time, diff in etot=  1.347E-09 < toldfe=  1.000E-06

 Cartesian components of stress tensor (hartree/bohr^3)
  sigma(1 1)=  7.28154831E-05  sigma(3 2)= -2.05810332E-15
  sigma(2 2)=  7.28154831E-05  sigma(3 1)= -2.91060588E-15
  sigma(3 3)=  7.28154831E-05  sigma(2 1)= -2.05820655E-15


--- !ResultsGS
iteration_state: {dtset: 1, }
comment   : Summary of ground state results
lattice_vectors:
- [  6.6542157,   0.0000000,   3.8418132, ]
- [  2.2180719,   6.2736547,   3.8418132, ]
- [  0.0000000,   0.0000000,   7.6836264, ]
lattice_lengths: [   7.68363,    7.68363,    7.68363, ]
lattice_angles: [ 60.000,  60.000,  60.000, ] # degrees, (23, 13, 12)
lattice_volume:   3.2076260E+02
convergence: {deltae: -1.347E-09, res2:  1.299E-07, residm:  4.485E-04, diffor: null, }
etotal    :  -1.12912269E+01
entropy   :   0.00000000E+00
fermie    :   1.49519749E-01
cartesian_stress_tensor: # hartree/bohr^3
- [  7.28154831E-05,  -2.05820655E-15,  -2.91060588E-15, ]
- [ -2.05820655E-15,   7.28154831E-05,  -2.05810332E-15, ]
- [ -2.91060588E-15,  -2.05810332E-15,   7.28154831E-05, ]
pressure_GPa:  -2.1423E+00
xred      :
- [  0.0000E+00,   0.0000E+00,   0.0000E+00, Ga]
- [  7.5000E-01,   7.5000E-01,   7.5000E-01, As]
cartesian_forces: # hartree/bohr
- [  6.21546290E-26,   4.39499596E-26,  -3.58849918E-26, ]
- [ -6.21546290E-26,  -4.39499596E-26,   3.58849918E-26, ]
force_length_stats: {min:   8.41577654E-26, max:   8.41577654E-26, mean:   8.41577654E-26, }
...

 Integrated electronic density in atomic spheres:
 ------------------------------------------------
 Atom  Sphere_radius  Integrated_density
    1        2.00000          1.04535820
    2        2.00000          2.41698425
================================================================================

 ----iterations are completed or convergence reached----

 Mean square residual over all n,k,spin=   26.455E-07; max=  44.848E-05
 reduced coordinates (array xred) for    2 atoms
       0.000000000000      0.000000000000      0.000000000000
       0.750000000000      0.750000000000      0.750000000000
 rms dE/dt=  3.8994E-25; max dE/dt=  5.5145E-25; dE/dt below (all hartree)
    1      -0.000000000000     -0.000000000000      0.000000000000
    2       0.000000000000      0.000000000000      0.000000000000

 cartesian coordinates (angstrom) at end:
    1      0.00000000000000     0.00000000000000     0.00000000000000
    2      3.52125927642431     2.48990631266236     6.09899997335882

 cartesian forces (hartree/bohr) at end:
    1      0.00000000000000     0.00000000000000    -0.00000000000000
    2     -0.00000000000000    -0.00000000000000     0.00000000000000
 frms,max,avg= 4.8588509E-26 6.2154629E-26   0.000E+00  0.000E+00  0.000E+00 h/b

 cartesian forces (eV/Angstrom) at end:
    1      0.00000000000000     0.00000000000000    -0.00000000000000
    2     -0.00000000000000    -0.00000000000000     0.00000000000000
 frms,max,avg= 2.4985214E-24 3.1961193E-24   0.000E+00  0.000E+00  0.000E+00 e/A
 length scales=  1.000000000000  1.000000000000  1.000000000000 bohr
              =  0.529177208590  0.529177208590  0.529177208590 angstroms
 prteigrs : about to open file gaasggao_DS1_EIG
 Fermi (or HOMO) energy (hartree) =   0.14952   Average Vxc (hartree)=  -0.34025
 Eigenvalues (hartree) for nkpt=  60  k points:
 kpt#   1, nband= 16, wtk=  0.00391, kpt=  0.0625  0.0625  0.0625 (reduced coord)
  -0.30099    0.11734    0.14952    0.14952    0.18513    0.28973    0.29140    0.29140
   0.42741    0.50573    0.50573    0.55651    0.58566    0.58566    0.68110    1.01230
 prteigrs : prtvol=0 or 1, do not print more k-points.


--- !EnergyTerms
iteration_state     : {dtset: 1, }
comment             : Components of total free energy in Hartree
kinetic             :  3.07930596606218E+00
hartree             :  7.99006183276666E-01
xc                  : -5.40986249158742E+00
Ewald energy        : -8.27989181345338E+00
psp_core            :  1.00893034126126E-01
local_psp           : -3.24215053951660E+00
non_local_psp       :  1.66147273484483E+00
total_energy        : -1.12912269262476E+01
total_energy_eV     : -3.07249910140492E+02
band_energy         : -2.97118934689084E-01
...


 Cartesian components of stress tensor (hartree/bohr^3)
  sigma(1 1)=  7.28154831E-05  sigma(3 2)= -2.05810332E-15
  sigma(2 2)=  7.28154831E-05  sigma(3 1)= -2.91060588E-15
  sigma(3 3)=  7.28154831E-05  sigma(2 1)= -2.05820655E-15

-Cartesian components of stress tensor (GPa)         [Pressure= -2.1423E+00 GPa]
- sigma(1 1)=  2.14230511E+00  sigma(3 2)= -6.05514799E-11
- sigma(2 2)=  2.14230511E+00  sigma(3 1)= -8.56329669E-11
- sigma(3 3)=  2.14230511E+00  sigma(2 1)= -6.05545170E-11

================================================================================
== DATASET  2 ==================================================================
-   mpi_nproc: 1, omp_nthreads: -1 (-1 if OMP is not activated)


--- !DatasetInfo
iteration_state: {dtset: 2, }
dimensions: {natom: 2, nkpt: 63, mband: 16, nsppol: 1, nspinor: 1, nspden: 1, mpw: 1391, }
cutoff_energies: {ecut:  20.0, pawecutdg:  -1.0, }
electrons: {nelect:   8.00000000E+00, charge:   0.00000000E+00, occopt:   1.00000000E+00, tsmear:   1.00000000E-02, }
meta: {optdriver: 0, ionmov: 0, optcell: 0, iscf: -2, paral_kgb: 0, }
...

 mkfilename : getden/=0, take file _DEN from output of DATASET   1.

 Exchange-correlation functional for the present dataset will be:
  GGA: Wu Cohen functional - ixc=23
 Citation for XC functional:
  Z. Wu and R. E. Cohen, PRB 73, 235116 (2006)

 Real(R)+Recip(G) space primitive vectors, cartesian coordinates (Bohr,Bohr^-1):
 R(1)=  6.6542157  0.0000000  3.8418132  G(1)=  0.1502807 -0.0531322  0.0000000
 R(2)=  2.2180719  6.2736547  3.8418132  G(2)=  0.0000000  0.1593967  0.0000000
 R(3)=  0.0000000  0.0000000  7.6836264  G(3)= -0.0751403 -0.0531322  0.1301469
 Unit cell volume ucvol=  3.2076260E+02 bohr^3
 Angles (23,13,12)=  6.00000000E+01  6.00000000E+01  6.00000000E+01 degrees

 getcut: wavevector=  0.0000  0.0000  0.0000  ngfft=  32  32  32
         ecut(hartree)=     20.000   => boxcut(ratio)=   2.06873
--------------------------------------------------------------------------------


================================================================================
 prteigrs : about to open file gaasggao_DS2_EIG
 Non-SCF case, kpt    1 ( -0.50000 -0.50000 -0.50000), residuals and eigenvalues=
  4.65E-13  1.36E-13  3.27E-13  4.00E-13  1.12E-13  3.60E-13  6.69E-13  1.50E-13
  5.95E-13  1.87E-13  4.85E-13  8.59E-13  4.92E-13  3.33E-13  8.91E-08  2.36E-04
 -2.4653E-01 -8.2582E-02  1.1276E-01  1.1276E-01  1.8209E-01  3.1990E-01
  3.1990E-01  4.2693E-01  5.1572E-01  5.7819E-01  5.7819E-01  5.9178E-01
  6.2386E-01  6.2386E-01  8.4302E-01  9.1644E-01
  prteigrs : nnsclo,ikpt=   30    1 max resid (incl. the buffer)=  2.35659E-04
 Non-SCF case, kpt    2 ( -0.47917 -0.47917 -0.47917), residuals and eigenvalues=
  5.21E-13  1.16E-13  4.80E-13  5.71E-13  1.64E-13  3.92E-13  1.15E-13  3.84E-13
  6.81E-13  2.04E-13  6.30E-13  3.44E-13  2.74E-13  4.38E-13  1.62E-06  2.31E-04
 -2.4693E-01 -8.1821E-02  1.1288E-01  1.1288E-01  1.8222E-01  3.1997E-01
  3.1997E-01  4.2696E-01  5.1286E-01  5.7386E-01  5.7386E-01  5.9468E-01
  6.2879E-01  6.2879E-01  8.3658E-01  9.2609E-01
  prteigrs : nnsclo,ikpt=   30    2 max resid (incl. the buffer)=  2.30506E-04
 Non-SCF case, kpt    3 ( -0.45833 -0.45833 -0.45833), residuals and eigenvalues=
  4.48E-13  3.99E-13  4.82E-13  7.49E-13  3.86E-13  2.85E-13  3.95E-13  7.83E-14
  9.56E-13  5.71E-13  3.27E-13  4.46E-13  4.30E-13  6.52E-13  5.69E-08  7.64E-05
 -2.4809E-01 -7.9565E-02  1.1323E-01  1.1323E-01  1.8260E-01  3.2016E-01
  3.2016E-01  4.2702E-01  5.0545E-01  5.6413E-01  5.6413E-01  6.0215E-01
  6.4031E-01  6.4031E-01  8.2201E-01  9.1258E-01
  prteigrs : nnsclo,ikpt=   30    3 max resid (incl. the buffer)=  7.63802E-05
 Non-SCF case, kpt    4 ( -0.43750 -0.43750 -0.43750), residuals and eigenvalues=
  2.87E-13  5.24E-13  3.25E-13  8.57E-13  9.17E-13  2.04E-13  3.63E-13  4.90E-13
  4.07E-13  5.56E-13  1.50E-13  5.76E-13  5.64E-13  5.95E-13  2.24E-07  1.82E-06
 -2.4994E-01 -7.5885E-02  1.1382E-01  1.1382E-01  1.8324E-01  3.2046E-01
  3.2046E-01  4.2693E-01  4.9567E-01  5.5270E-01  5.5270E-01  6.1187E-01
  6.5474E-01  6.5474E-01  8.0515E-01  8.9127E-01
  prteigrs : nnsclo,ikpt=   30    4 max resid (incl. the buffer)=  1.82022E-06
 Non-SCF case, kpt    5 ( -0.41667 -0.41667 -0.41667), residuals and eigenvalues=
  8.78E-13  1.54E-13  4.14E-13  7.17E-13  8.78E-13  2.23E-13  4.33E-13  2.25E-13
  5.64E-13  3.19E-13  4.25E-13  5.61E-13  9.06E-13  4.54E-13  7.58E-08  3.28E-09
 -2.5239E-01 -7.0886E-02  1.1464E-01  1.1464E-01  1.8413E-01  3.2083E-01
  3.2083E-01  4.2637E-01  4.8527E-01  5.4105E-01  5.4105E-01  6.2180E-01
  6.7062E-01  6.7062E-01  7.8894E-01  8.7043E-01
  prteigrs : nnsclo,ikpt=   30    5 max resid (incl. the buffer)=  7.57763E-08
 Non-SCF case, kpt    6 ( -0.39583 -0.39583 -0.39583), residuals and eigenvalues=
  5.44E-13  7.66E-14  2.94E-13  1.14E-13  3.00E-13  6.59E-13  1.89E-13  3.44E-13
  1.95E-13  8.28E-13  8.56E-13  8.96E-13  5.15E-13  6.60E-13  4.74E-10  3.99E-10
 -2.5532E-01 -6.4691E-02  1.1569E-01  1.1569E-01  1.8526E-01  3.2123E-01
  3.2123E-01  4.2471E-01  4.7565E-01  5.2976E-01  5.2976E-01  6.3008E-01
  6.8740E-01  6.8740E-01  7.7535E-01  8.5001E-01
  prteigrs : nnsclo,ikpt=   30    6 max resid (incl. the buffer)=  4.73736E-10
 Non-SCF case, kpt    7 ( -0.37500 -0.37500 -0.37500), residuals and eigenvalues=
  2.75E-13  1.05E-13  4.57E-13  5.26E-13  5.44E-13  6.17E-13  6.95E-13  2.13E-13
  2.50E-13  6.69E-13  9.59E-13  8.30E-13  2.48E-13  7.82E-13  8.90E-09  4.64E-13
 -2.5860E-01 -5.7428E-02  1.1696E-01  1.1696E-01  1.8662E-01  3.2159E-01
  3.2159E-01  4.2102E-01  4.6814E-01  5.1914E-01  5.1914E-01  6.3474E-01
  7.0481E-01  7.0481E-01  7.6637E-01  8.3009E-01
  prteigrs : nnsclo,ikpt=   30    7 max resid (incl. the buffer)=  8.89942E-09
 Non-SCF case, kpt    8 ( -0.35417 -0.35417 -0.35417), residuals and eigenvalues=
  6.18E-13  1.16E-13  3.07E-13  1.96E-13  3.18E-13  6.50E-13  6.17E-13  5.26E-13
  2.86E-13  2.93E-13  5.56E-13  2.35E-13  4.47E-13  4.79E-13  1.73E-09  4.75E-13
 -2.6213E-01 -4.9219E-02  1.1844E-01  1.1844E-01  1.8821E-01  3.2184E-01
  3.2184E-01  4.1458E-01  4.6368E-01  5.0937E-01  5.0937E-01  6.3407E-01
  7.2259E-01  7.2259E-01  7.6369E-01  8.1082E-01
  prteigrs : nnsclo,ikpt=   30    8 max resid (incl. the buffer)=  1.73344E-09
 Non-SCF case, kpt    9 ( -0.33333 -0.33333 -0.33333), residuals and eigenvalues=
  5.48E-13  9.64E-13  2.28E-13  2.59E-13  7.86E-13  7.72E-13  4.09E-13  3.71E-13
  3.76E-13  4.85E-13  9.42E-13  4.55E-13  4.73E-13  5.01E-13  3.03E-08  7.35E-13
 -2.6580E-01 -4.0178E-02  1.2013E-01  1.2013E-01  1.8998E-01  3.2188E-01
  3.2188E-01  4.0558E-01  4.6219E-01  5.0061E-01  5.0061E-01  6.2771E-01
  7.4019E-01  7.4019E-01  7.6767E-01  7.9272E-01
  prteigrs : nnsclo,ikpt=   30    9 max resid (incl. the buffer)=  3.02775E-08
 Non-SCF case, kpt   10 ( -0.31250 -0.31250 -0.31250), residuals and eigenvalues=
  8.37E-13  8.92E-13  2.92E-13  2.52E-13  2.55E-13  4.84E-13  6.09E-13  7.92E-13
  3.36E-13  5.61E-13  4.84E-13  2.97E-13  4.25E-13  8.75E-13  2.10E-05  7.23E-13
 -2.6952E-01 -3.0405E-02  1.2201E-01  1.2201E-01  1.9193E-01  3.2162E-01
  3.2162E-01  3.9491E-01  4.6281E-01  4.9301E-01  4.9301E-01  6.1695E-01
  7.5397E-01  7.5397E-01  7.7750E-01  7.7938E-01
  prteigrs : nnsclo,ikpt=   30   10 max resid (incl. the buffer)=  2.10084E-05
 Non-SCF case, kpt   11 ( -0.29167 -0.29167 -0.29167), residuals and eigenvalues=
  3.42E-13  2.06E-13  3.96E-13  3.69E-13  2.54E-13  5.14E-13  4.98E-13  6.68E-13
  8.98E-13  2.72E-13  6.86E-13  8.38E-13  4.51E-13  9.30E-13  4.47E-13  1.68E-05
 -2.7322E-01 -1.9990E-02  1.2407E-01  1.2407E-01  1.9401E-01  3.2098E-01
  3.2098E-01  3.8338E-01  4.6473E-01  4.8669E-01  4.8669E-01  6.0357E-01
  7.4830E-01  7.4830E-01  7.8640E-01  7.8684E-01
  prteigrs : nnsclo,ikpt=   30   11 max resid (incl. the buffer)=  1.68150E-05
 Non-SCF case, kpt   12 ( -0.27083 -0.27083 -0.27083), residuals and eigenvalues=
  4.83E-13  3.82E-13  1.37E-13  2.26E-13  5.24E-13  5.17E-13  8.63E-13  4.46E-13
  3.77E-13  5.99E-13  4.36E-13  8.03E-13  4.38E-13  4.84E-13  5.20E-08  4.28E-11
 -2.7684E-01 -9.0116E-03  1.2629E-01  1.2629E-01  1.9617E-01  3.1986E-01
  3.1986E-01  3.7151E-01  4.6731E-01  4.8177E-01  4.8177E-01  5.8907E-01
  7.3253E-01  7.3253E-01  8.0438E-01  8.0445E-01
  prteigrs : nnsclo,ikpt=   30   12 max resid (incl. the buffer)=  5.19758E-08
 Non-SCF case, kpt   13 ( -0.25000 -0.25000 -0.25000), residuals and eigenvalues=
  3.54E-13  3.56E-13  2.47E-13  4.12E-13  7.06E-13  2.92E-13  5.57E-13  2.56E-13
  2.36E-13  3.12E-13  1.79E-13  2.49E-13  6.69E-13  7.03E-13  5.25E-05  2.33E-06
 -2.8032E-01  2.4584E-03  1.2864E-01  1.2864E-01  1.9832E-01  3.1823E-01
  3.1823E-01  3.5963E-01  4.7005E-01  4.7832E-01  4.7832E-01  5.7457E-01
  7.1576E-01  7.1576E-01  8.1138E-01  8.2439E-01
  prteigrs : nnsclo,ikpt=   30   13 max resid (incl. the buffer)=  5.25193E-05
 Non-SCF case, kpt   14 ( -0.22917 -0.22917 -0.22917), residuals and eigenvalues=
  7.79E-13  1.76E-13  5.70E-13  2.02E-13  2.50E-13  1.33E-13  3.59E-13  2.17E-13
  2.30E-13  7.33E-13  5.72E-13  7.63E-13  5.29E-13  6.63E-13  1.04E-07  6.03E-07
 -2.8364E-01  1.4354E-02  1.3111E-01  1.3111E-01  2.0037E-01  3.1607E-01
  3.1607E-01  3.4798E-01  4.7232E-01  4.7638E-01  4.7638E-01  5.6108E-01
  6.9913E-01  6.9913E-01  7.9784E-01  8.4511E-01
  prteigrs : nnsclo,ikpt=   30   14 max resid (incl. the buffer)=  6.02766E-07
 Non-SCF case, kpt   15 ( -0.20833 -0.20833 -0.20833), residuals and eigenvalues=
  7.15E-13  3.24E-13  7.49E-13  4.28E-13  3.42E-13  7.34E-13  3.56E-13  1.44E-13
  4.64E-13  2.93E-13  2.52E-13  4.23E-13  1.63E-13  7.53E-13  2.74E-09  6.37E-07
 -2.8675E-01  2.6615E-02  1.3365E-01  1.3365E-01  2.0217E-01  3.1341E-01
  3.1341E-01  3.3676E-01  4.7331E-01  4.7594E-01  4.7594E-01  5.4969E-01
  6.8286E-01  6.8286E-01  7.8095E-01  8.6625E-01
  prteigrs : nnsclo,ikpt=   30   15 max resid (incl. the buffer)=  6.36704E-07
 Non-SCF case, kpt   16 ( -0.18750 -0.18750 -0.18750), residuals and eigenvalues=
  6.39E-13  9.39E-13  1.71E-13  2.48E-13  2.61E-13  2.92E-13  2.47E-13  1.48E-13
  9.99E-13  7.18E-13  5.18E-13  2.95E-13  7.15E-13  5.69E-13  2.17E-11  2.77E-05
 -2.8962E-01  3.9179E-02  1.3624E-01  1.3624E-01  2.0350E-01  3.1035E-01
  3.1035E-01  3.2618E-01  4.7197E-01  4.7693E-01  4.7693E-01  5.4162E-01
  6.6705E-01  6.6705E-01  7.6411E-01  8.8496E-01
  prteigrs : nnsclo,ikpt=   30   16 max resid (incl. the buffer)=  2.77120E-05
 Non-SCF case, kpt   17 ( -0.16667 -0.16667 -0.16667), residuals and eigenvalues=
  7.44E-13  5.50E-13  2.80E-13  2.50E-13  3.47E-13  5.45E-13  4.21E-13  4.35E-13
  1.64E-13  2.90E-13  4.61E-13  4.34E-13  5.49E-13  6.00E-13  1.53E-11  6.29E-05
 -2.9224E-01  5.1987E-02  1.3882E-01  1.3882E-01  2.0411E-01  3.0701E-01
  3.0701E-01  3.1650E-01  4.6759E-01  4.7927E-01  4.7927E-01  5.3773E-01
  6.5176E-01  6.5176E-01  7.4781E-01  9.0788E-01
  prteigrs : nnsclo,ikpt=   30   17 max resid (incl. the buffer)=  6.29195E-05
 Non-SCF case, kpt   18 ( -0.14583 -0.14583 -0.14583), residuals and eigenvalues=
  2.27E-13  8.12E-14  6.08E-13  7.26E-13  1.61E-13  3.05E-13  2.20E-13  4.49E-13
  8.51E-14  5.54E-13  5.19E-13  5.83E-13  7.16E-13  3.70E-13  6.91E-12  7.85E-05
 -2.9459E-01  6.4978E-02  1.4134E-01  1.4134E-01  2.0364E-01  3.0352E-01
  3.0352E-01  3.0800E-01  4.6051E-01  4.8283E-01  4.8283E-01  5.3782E-01
  6.3704E-01  6.3704E-01  7.3225E-01  9.2632E-01
  prteigrs : nnsclo,ikpt=   30   18 max resid (incl. the buffer)=  7.84938E-05
 Non-SCF case, kpt   19 ( -0.12500 -0.12500 -0.12500), residuals and eigenvalues=
  3.14E-13  2.55E-13  2.25E-13  2.58E-13  1.48E-13  3.20E-13  2.93E-13  7.25E-13
  2.93E-13  4.39E-13  8.44E-13  5.00E-13  5.20E-13  4.90E-13  8.57E-11  1.33E-04
 -2.9665E-01  7.8085E-02  1.4374E-01  1.4374E-01  2.0172E-01  3.0006E-01
  3.0006E-01  3.0097E-01  4.5189E-01  4.8745E-01  4.8745E-01  5.4077E-01
  6.2295E-01  6.2295E-01  7.1758E-01  9.5093E-01
  prteigrs : nnsclo,ikpt=   30   19 max resid (incl. the buffer)=  1.33137E-04
 Non-SCF case, kpt   20 ( -0.10417 -0.10417 -0.10417), residuals and eigenvalues=
  3.15E-13  2.05E-13  3.04E-13  2.92E-13  1.58E-13  6.62E-13  2.45E-13  2.87E-13
  4.59E-13  2.65E-13  5.39E-13  2.85E-13  6.97E-13  1.86E-13  1.86E-11  1.54E-04
 -2.9840E-01  9.1237E-02  1.4595E-01  1.4595E-01  1.9806E-01  2.9561E-01
  2.9678E-01  2.9678E-01  4.4295E-01  4.9297E-01  4.9297E-01  5.4545E-01
  6.0957E-01  6.0957E-01  7.0397E-01  9.7226E-01
  prteigrs : nnsclo,ikpt=   30   20 max resid (incl. the buffer)=  1.53565E-04
 Non-SCF case, kpt   21 ( -0.08333 -0.08333 -0.08333), residuals and eigenvalues=
  6.98E-13  2.47E-13  5.92E-13  4.53E-13  6.11E-13  2.33E-13  2.37E-13  1.44E-13
  2.39E-13  6.07E-13  2.56E-13  7.32E-13  1.12E-13  2.26E-13  4.86E-12  1.19E-04
 -2.9986E-01  1.0435E-01  1.4790E-01  1.4790E-01  1.9250E-01  2.9194E-01
  2.9385E-01  2.9385E-01  4.3457E-01  4.9917E-01  4.9917E-01  5.5095E-01
  5.9706E-01  5.9706E-01  6.9169E-01  9.8914E-01
  prteigrs : nnsclo,ikpt=   30   21 max resid (incl. the buffer)=  1.18794E-04
 Non-SCF case, kpt   22 ( -0.06250 -0.06250 -0.06250), residuals and eigenvalues=
  8.18E-13  2.40E-13  6.33E-13  3.33E-13  9.90E-13  2.53E-13  2.25E-13  9.04E-14
  6.46E-13  3.45E-13  7.09E-13  5.30E-13  4.62E-13  5.90E-13  2.13E-12  1.18E-04
 -3.0099E-01  1.1734E-01  1.4952E-01  1.4952E-01  1.8513E-01  2.8973E-01
  2.9139E-01  2.9139E-01  4.2740E-01  5.0573E-01  5.0573E-01  5.5651E-01
  5.8565E-01  5.8565E-01  6.8109E-01  1.0094E+00
  prteigrs : nnsclo,ikpt=   30   22 max resid (incl. the buffer)=  1.18125E-04
 Non-SCF case, kpt   23 ( -0.04167 -0.04167 -0.04167), residuals and eigenvalues=
  7.32E-14  2.07E-13  9.38E-13  5.05E-13  4.09E-13  2.48E-13  1.27E-13  4.24E-13
  1.83E-13  1.79E-13  7.32E-13  9.14E-14  9.71E-13  2.40E-13  4.42E-13  1.21E-04
 -3.0181E-01  1.3006E-01  1.5073E-01  1.5073E-01  1.7621E-01  2.8860E-01
  2.8954E-01  2.8954E-01  4.2192E-01  5.1208E-01  5.1208E-01  5.6139E-01
  5.7588E-01  5.7588E-01  6.7273E-01  1.0289E+00
  prteigrs : nnsclo,ikpt=   30   23 max resid (incl. the buffer)=  1.20760E-04
 Non-SCF case, kpt   24 ( -0.02083 -0.02083 -0.02083), residuals and eigenvalues=
  7.17E-14  2.79E-13  4.79E-13  7.11E-13  6.03E-13  6.41E-14  3.15E-13  2.61E-13
  3.51E-13  4.17E-13  3.96E-13  5.70E-13  3.76E-13  8.34E-13  3.14E-13  1.19E-04
 -3.0230E-01  1.4233E-01  1.5148E-01  1.5148E-01  1.6614E-01  2.8812E-01
  2.8840E-01  2.8840E-01  4.1847E-01  5.1714E-01  5.1714E-01  5.6481E-01
  5.6877E-01  5.6877E-01  6.6726E-01  1.0494E+00
  prteigrs : nnsclo,ikpt=   30   24 max resid (incl. the buffer)=  1.19256E-04
 Non-SCF case, kpt   25 (  0.00000  0.00000  0.00000), residuals and eigenvalues=
  3.08E-13  1.41E-13  5.76E-13  2.02E-13  6.76E-14  8.56E-13  1.45E-13  1.46E-13
  2.14E-13  6.93E-13  7.58E-13  1.85E-13  5.29E-13  8.16E-13  6.74E-13  3.81E-05
 -3.0246E-01  1.5174E-01  1.5174E-01  1.5174E-01  1.5744E-01  2.8800E-01
  2.8801E-01  2.8801E-01  4.1730E-01  5.1919E-01  5.1919E-01  5.6605E-01
  5.6605E-01  5.6605E-01  6.6535E-01  1.0552E+00
  prteigrs : nnsclo,ikpt=   30   25 max resid (incl. the buffer)=  3.81065E-05
 Non-SCF case, kpt   26 (  0.01786  0.00000  0.01786), residuals and eigenvalues=
  1.10E-13  1.85E-13  7.01E-13  7.32E-14  9.24E-14  5.63E-13  9.35E-13  8.89E-13
  8.18E-13  1.45E-13  3.09E-13  7.69E-13  4.95E-13  2.79E-13  7.42E-13  1.22E-04
 -3.0230E-01  1.4284E-01  1.5115E-01  1.5115E-01  1.6632E-01  2.8727E-01
  2.8881E-01  2.8881E-01  4.1845E-01  5.1508E-01  5.1938E-01  5.6644E-01
  5.6644E-01  5.6928E-01  6.6725E-01  1.0490E+00
  prteigrs : nnsclo,ikpt=   30   26 max resid (incl. the buffer)=  1.21728E-04
 Non-SCF case, kpt   27 (  0.03571  0.00000  0.03571), residuals and eigenvalues=
  2.13E-13  1.02E-13  6.48E-13  4.74E-13  6.59E-13  8.39E-14  5.16E-13  2.46E-13
  5.86E-13  7.79E-13  3.78E-13  6.02E-13  7.55E-13  7.53E-13  1.67E-13  2.62E-04
 -3.0182E-01  1.3163E-01  1.4944E-01  1.4944E-01  1.7746E-01  2.8513E-01
  2.9119E-01  2.9119E-01  4.2181E-01  5.0526E-01  5.1994E-01  5.6760E-01
  5.6760E-01  5.7650E-01  6.7294E-01  1.0384E+00
  prteigrs : nnsclo,ikpt=   30   27 max resid (incl. the buffer)=  2.61934E-04
 Non-SCF case, kpt   28 (  0.05357  0.00000  0.05357), residuals and eigenvalues=
  5.35E-13  3.17E-13  2.86E-13  1.67E-13  3.92E-13  7.44E-13  3.24E-13  6.58E-13
  7.81E-13  7.07E-13  4.67E-13  7.60E-13  3.08E-13  3.63E-13  1.16E-12  5.08E-04
 -3.0102E-01  1.2034E-01  1.4673E-01  1.4673E-01  1.8858E-01  2.8183E-01
  2.9501E-01  2.9501E-01  4.2715E-01  4.9308E-01  5.2087E-01  5.6955E-01
  5.6955E-01  5.8453E-01  6.8230E-01  1.0174E+00
  prteigrs : nnsclo,ikpt=   30   28 max resid (incl. the buffer)=  5.08482E-04
 Non-SCF case, kpt   29 (  0.07143  0.00000  0.07143), residuals and eigenvalues=
  5.35E-13  3.70E-13  2.93E-13  2.30E-13  4.97E-13  7.80E-13  5.00E-13  9.08E-14
  1.56E-13  7.86E-13  7.00E-13  4.51E-13  6.01E-13  1.97E-13  4.38E-12  4.58E-04
 -2.9990E-01  1.0909E-01  1.4318E-01  1.4318E-01  1.9950E-01  2.7766E-01
  3.0010E-01  3.0010E-01  4.3412E-01  4.8025E-01  5.2217E-01  5.7228E-01
  5.7228E-01  5.9209E-01  6.9500E-01  9.9630E-01
  prteigrs : nnsclo,ikpt=   30   29 max resid (incl. the buffer)=  4.57991E-04
 Non-SCF case, kpt   30 (  0.08929  0.00000  0.08929), residuals and eigenvalues=
  1.40E-13  7.16E-13  3.59E-13  1.93E-13  1.20E-13  1.30E-13  1.12E-13  1.20E-13
  4.42E-13  2.44E-13  8.27E-13  2.82E-13  4.22E-13  4.94E-13  1.77E-11  3.42E-04
 -2.9847E-01  9.7898E-02  1.3898E-01  1.3898E-01  2.1008E-01  2.7294E-01
  3.0628E-01  3.0628E-01  4.4217E-01  4.6784E-01  5.2385E-01  5.7580E-01
  5.7580E-01  5.9896E-01  7.1055E-01  9.7481E-01
  prteigrs : nnsclo,ikpt=   30   30 max resid (incl. the buffer)=  3.41833E-04
 Non-SCF case, kpt   31 (  0.10714  0.00000  0.10714), residuals and eigenvalues=
  2.77E-13  4.29E-13  2.27E-13  3.95E-13  3.60E-13  9.69E-14  6.85E-13  3.16E-13
  2.93E-13  4.30E-13  4.21E-13  1.73E-13  9.67E-13  4.41E-13  1.70E-10  4.98E-04
 -2.9673E-01  8.6790E-02  1.3431E-01  1.3431E-01  2.2010E-01  2.6799E-01
  3.1337E-01  3.1337E-01  4.4813E-01  4.5923E-01  5.2590E-01  5.8010E-01
  5.8010E-01  6.0534E-01  7.2837E-01  9.5526E-01
  prteigrs : nnsclo,ikpt=   30   31 max resid (incl. the buffer)=  4.98466E-04
 Non-SCF case, kpt   32 (  0.12500  0.00000  0.12500), residuals and eigenvalues=
  4.39E-13  2.34E-13  2.70E-13  4.73E-13  3.36E-13  3.82E-13  9.22E-13  1.08E-13
  3.71E-13  7.82E-13  4.18E-13  6.52E-13  6.99E-13  8.73E-13  2.88E-10  7.33E-05
 -2.9469E-01  7.5778E-02  1.2931E-01  1.2931E-01  2.2917E-01  2.6322E-01
  3.2120E-01  3.2120E-01  4.4121E-01  4.6538E-01  5.2832E-01  5.8519E-01
  5.8519E-01  6.1150E-01  7.4800E-01  9.3472E-01
  prteigrs : nnsclo,ikpt=   30   32 max resid (incl. the buffer)=  7.32734E-05
 Non-SCF case, kpt   33 (  0.14286  0.00000  0.14286), residuals and eigenvalues=
  1.88E-13  9.68E-13  2.26E-13  1.10E-13  5.64E-13  5.41E-13  3.20E-13  1.98E-13
  4.80E-13  4.85E-13  2.80E-13  3.53E-13  9.48E-13  9.80E-13  7.95E-09  1.24E-04
 -2.9234E-01  6.4873E-02  1.2413E-01  1.2413E-01  2.3645E-01  2.5939E-01
  3.2964E-01  3.2964E-01  4.3153E-01  4.7633E-01  5.3111E-01  5.9106E-01
  5.9106E-01  6.1768E-01  7.6905E-01  9.1535E-01
  prteigrs : nnsclo,ikpt=   30   33 max resid (incl. the buffer)=  1.24268E-04
 Non-SCF case, kpt   34 (  0.16071  0.00000  0.16071), residuals and eigenvalues=
  1.66E-13  2.31E-13  8.84E-14  4.84E-13  7.15E-13  5.60E-13  1.65E-13  2.39E-13
  4.03E-13  4.98E-13  7.65E-13  4.08E-13  4.19E-13  4.19E-13  1.15E-08  1.37E-05
 -2.8970E-01  5.4083E-02  1.1886E-01  1.1886E-01  2.4007E-01  2.5822E-01
  3.3858E-01  3.3858E-01  4.2303E-01  4.8838E-01  5.3427E-01  5.9773E-01
  5.9773E-01  6.2407E-01  7.9124E-01  8.9579E-01
  prteigrs : nnsclo,ikpt=   30   34 max resid (incl. the buffer)=  1.36950E-05
 Non-SCF case, kpt   35 (  0.17857  0.00000  0.17857), residuals and eigenvalues=
  1.70E-13  3.42E-13  7.53E-14  3.60E-13  1.36E-13  3.27E-13  3.02E-13  3.22E-13
  5.66E-13  5.71E-13  4.46E-13  3.84E-13  9.01E-13  8.49E-13  8.58E-07  3.40E-06
 -2.8678E-01  4.3419E-02  1.1359E-01  1.1359E-01  2.3896E-01  2.6052E-01
  3.4793E-01  3.4793E-01  4.1641E-01  5.0107E-01  5.3780E-01  6.0518E-01
  6.0518E-01  6.3081E-01  8.1437E-01  8.7680E-01
  prteigrs : nnsclo,ikpt=   30   35 max resid (incl. the buffer)=  3.40066E-06
 Non-SCF case, kpt   36 (  0.19643  0.00000  0.19643), residuals and eigenvalues=
  3.76E-13  2.05E-13  9.47E-14  2.74E-13  1.33E-13  3.85E-13  4.56E-13  8.90E-13
  6.20E-13  3.40E-13  3.87E-13  4.58E-13  6.32E-13  2.69E-13  4.19E-05  7.02E-06
 -2.8359E-01  3.2892E-02  1.0840E-01  1.0840E-01  2.3541E-01  2.6373E-01
  3.5761E-01  3.5761E-01  4.1211E-01  5.1424E-01  5.4170E-01  6.1342E-01
  6.1342E-01  6.3800E-01  8.3836E-01  8.5815E-01
  prteigrs : nnsclo,ikpt=   30   36 max resid (incl. the buffer)=  4.18925E-05
 Non-SCF case, kpt   37 (  0.21429  0.00000  0.21429), residuals and eigenvalues=
  3.59E-13  3.21E-13  1.03E-13  3.78E-13  2.80E-13  1.27E-13  3.12E-13  3.34E-13
  3.86E-13  4.37E-13  3.03E-13  3.27E-13  4.66E-13  8.14E-13  3.86E-06  7.63E-04
 -2.8014E-01  2.2513E-02  1.0332E-01  1.0332E-01  2.3120E-01  2.6586E-01
  3.6757E-01  3.6757E-01  4.1042E-01  5.2775E-01  5.4596E-01  6.2244E-01
  6.2244E-01  6.4572E-01  8.3983E-01  8.4150E-01
  prteigrs : nnsclo,ikpt=   30   37 max resid (incl. the buffer)=  7.62728E-04
 Non-SCF case, kpt   38 (  0.23214  0.00000  0.23214), residuals and eigenvalues=
  4.52E-13  2.54E-13  5.38E-13  1.51E-13  5.93E-13  6.69E-13  1.12E-13  3.84E-13
  9.11E-13  4.07E-13  5.44E-13  9.29E-13  9.13E-13  6.01E-13  6.60E-07  4.88E-06
 -2.7644E-01  1.2299E-02  9.8420E-02  9.8420E-02  2.2693E-01  2.6626E-01
  3.7774E-01  3.7774E-01  4.1144E-01  5.4147E-01  5.5058E-01  6.3224E-01
  6.3224E-01  6.5404E-01  8.2187E-01  8.2187E-01
  prteigrs : nnsclo,ikpt=   30   38 max resid (incl. the buffer)=  4.87903E-06
 Non-SCF case, kpt   39 (  0.25000  0.00000  0.25000), residuals and eigenvalues=
  3.93E-13  2.65E-13  6.19E-13  9.12E-14  1.26E-13  1.35E-13  2.26E-13  3.36E-13
  5.95E-13  2.69E-13  3.33E-13  9.06E-13  5.96E-13  4.56E-13  1.85E-07  4.72E-06
 -2.7252E-01  2.2672E-03  9.3722E-02  9.3722E-02  2.2283E-01  2.6490E-01
  3.8810E-01  3.8810E-01  4.1503E-01  5.5525E-01  5.5557E-01  6.4281E-01
  6.4281E-01  6.6300E-01  8.0429E-01  8.0430E-01
  prteigrs : nnsclo,ikpt=   30   39 max resid (incl. the buffer)=  4.71678E-06
 Non-SCF case, kpt   40 (  0.26786  0.00000  0.26786), residuals and eigenvalues=
  2.63E-13  7.60E-13  9.30E-13  1.65E-13  3.39E-13  1.55E-13  9.23E-13  4.33E-13
  9.01E-13  5.61E-13  3.67E-13  5.52E-13  9.92E-13  4.78E-13  1.26E-07  1.33E-06
 -2.6840E-01 -7.5593E-03  8.9258E-02  8.9258E-02  2.1899E-01  2.6204E-01
  3.9859E-01  3.9859E-01  4.2083E-01  5.6090E-01  5.6892E-01  6.5414E-01
  6.5414E-01  6.7265E-01  7.8711E-01  7.8711E-01
  prteigrs : nnsclo,ikpt=   30   40 max resid (incl. the buffer)=  1.32926E-06
 Non-SCF case, kpt   41 (  0.28571  0.00000  0.28571), residuals and eigenvalues=
  3.31E-13  4.13E-13  7.52E-13  3.68E-13  2.23E-13  1.66E-13  6.47E-13  2.89E-13
  6.14E-13  5.32E-13  6.41E-13  6.40E-13  4.57E-13  6.28E-13  7.76E-09  1.17E-08
 -2.6410E-01 -1.7152E-02  8.5053E-02  8.5053E-02  2.1548E-01  2.5806E-01
  4.0919E-01  4.0919E-01  4.2840E-01  5.6659E-01  5.8226E-01  6.6621E-01
  6.6621E-01  6.8303E-01  7.7035E-01  7.7035E-01
  prteigrs : nnsclo,ikpt=   30   41 max resid (incl. the buffer)=  1.17442E-08
 Non-SCF case, kpt   42 (  0.30357  0.00000  0.30357), residuals and eigenvalues=
  4.90E-13  9.52E-13  8.04E-13  3.99E-13  1.77E-13  1.93E-13  6.88E-13  9.91E-13
  1.97E-13  7.76E-13  3.67E-13  7.81E-13  3.96E-13  9.43E-13  4.37E-09  2.46E-08
 -2.5966E-01 -2.6477E-02  8.1128E-02  8.1128E-02  2.1233E-01  2.5335E-01
  4.1986E-01  4.1986E-01  4.3731E-01  5.7261E-01  5.9498E-01  6.7897E-01
  6.7897E-01  6.9417E-01  7.5407E-01  7.5407E-01
  prteigrs : nnsclo,ikpt=   30   42 max resid (incl. the buffer)=  2.46162E-08
 Non-SCF case, kpt   43 (  0.32143  0.00000  0.32143), residuals and eigenvalues=
  5.49E-13  4.94E-13  1.37E-13  4.78E-13  3.67E-13  1.56E-13  2.34E-13  6.85E-13
  1.83E-13  6.27E-13  4.65E-13  5.50E-13  3.69E-13  7.55E-13  4.90E-13  9.12E-13
 -2.5512E-01 -3.5492E-02  7.7499E-02  7.7499E-02  2.0957E-01  2.4824E-01
  4.3057E-01  4.3057E-01  4.4719E-01  5.7897E-01  6.0670E-01  6.9235E-01
  6.9235E-01  7.0608E-01  7.3837E-01  7.3837E-01
 Non-SCF case, kpt   44 (  0.33929  0.00000  0.33929), residuals and eigenvalues=
  4.30E-13  2.57E-13  4.20E-13  2.49E-13  7.10E-13  8.73E-13  1.67E-13  1.78E-13
  8.83E-13  3.84E-13  4.62E-13  3.61E-13  3.25E-13  5.37E-13  5.31E-13  4.15E-13
 -2.5053E-01 -4.4143E-02  7.4181E-02  7.4181E-02  2.0721E-01  2.4297E-01
  4.4125E-01  4.4125E-01  4.5773E-01  5.8563E-01  6.1695E-01  7.0569E-01
  7.0569E-01  7.1876E-01  7.2392E-01  7.2392E-01
 Non-SCF case, kpt   45 (  0.35714  0.00000  0.35714), residuals and eigenvalues=
  4.12E-13  4.20E-13  3.59E-13  5.44E-13  1.54E-13  3.17E-13  1.27E-13  1.31E-13
  4.98E-13  6.18E-13  3.80E-13  7.25E-13  6.45E-13  6.52E-13  9.25E-13  2.89E-11
 -2.4595E-01 -5.2366E-02  7.1184E-02  7.1184E-02  2.0527E-01  2.3774E-01
  4.5186E-01  4.5186E-01  4.6868E-01  5.9257E-01  6.2517E-01  7.0599E-01
  7.0599E-01  7.2379E-01  7.2379E-01  7.3216E-01
  prteigrs : nnsclo,ikpt=   30   45 max resid (incl. the buffer)=  2.89375E-11
 Non-SCF case, kpt   46 (  0.37500  0.00000  0.37500), residuals and eigenvalues=
  3.63E-13  3.59E-13  3.31E-13  3.12E-13  8.36E-13  2.41E-13  9.81E-13  1.37E-13
  7.04E-13  6.91E-13  9.77E-13  5.31E-13  6.54E-13  9.71E-13  1.43E-07  1.87E-06
 -2.4146E-01 -6.0081E-02  6.8520E-02  6.8520E-02  2.0376E-01  2.3270E-01
  4.6232E-01  4.6232E-01  4.7979E-01  5.9976E-01  6.3082E-01  6.9279E-01
  6.9279E-01  7.3847E-01  7.3848E-01  7.4621E-01
  prteigrs : nnsclo,ikpt=   30   46 max resid (incl. the buffer)=  1.87010E-06
 Non-SCF case, kpt   47 (  0.39286  0.00000  0.39286), residuals and eigenvalues=
  5.85E-13  3.42E-13  6.44E-13  3.87E-13  1.21E-13  5.01E-13  6.49E-13  2.12E-13
  8.21E-13  6.27E-13  8.74E-13  6.81E-13  6.53E-13  3.44E-08  6.48E-13  9.03E-07
 -2.3715E-01 -6.7192E-02  6.6196E-02  6.6196E-02  2.0269E-01  2.2793E-01
  4.7249E-01  4.7249E-01  4.9087E-01  6.0713E-01  6.3356E-01  6.7958E-01
  6.7958E-01  7.5095E-01  7.5460E-01  7.5462E-01
  prteigrs : nnsclo,ikpt=   30   47 max resid (incl. the buffer)=  9.03403E-07
 Non-SCF case, kpt   48 (  0.41071  0.00000  0.41071), residuals and eigenvalues=
  3.09E-13  4.31E-13  4.27E-13  1.17E-13  1.72E-13  6.35E-13  3.26E-13  1.58E-13
  3.21E-13  5.38E-13  7.51E-13  4.62E-13  4.94E-13  4.48E-13  6.35E-13  1.49E-05
 -2.3313E-01 -7.3583E-02  6.4219E-02  6.4219E-02  2.0204E-01  2.2353E-01
  4.8222E-01  4.8222E-01  5.0165E-01  6.1458E-01  6.3349E-01  6.6719E-01
  6.6719E-01  7.3916E-01  7.7150E-01  7.7166E-01
  prteigrs : nnsclo,ikpt=   30   48 max resid (incl. the buffer)=  1.48664E-05
 Non-SCF case, kpt   49 (  0.42857  0.00000  0.42857), residuals and eigenvalues=
  4.28E-13  2.87E-13  2.89E-13  4.22E-13  7.14E-13  1.41E-13  1.88E-13  6.92E-13
  1.73E-13  6.40E-13  5.28E-13  5.28E-13  8.76E-13  4.42E-13  8.92E-08  5.72E-06
 -2.2955E-01 -7.9120E-02  6.2594E-02  6.2594E-02  2.0183E-01  2.1956E-01
  4.9125E-01  4.9125E-01  5.1182E-01  6.2196E-01  6.3114E-01  6.5595E-01
  6.5595E-01  7.2823E-01  7.8906E-01  7.8956E-01
  prteigrs : nnsclo,ikpt=   30   49 max resid (incl. the buffer)=  5.71987E-06
 Non-SCF case, kpt   50 (  0.44643  0.00000  0.44643), residuals and eigenvalues=
  7.37E-13  4.37E-13  1.31E-13  3.74E-13  6.36E-14  9.06E-14  7.74E-13  9.66E-14
  6.89E-13  5.57E-13  9.95E-13  9.56E-13  6.25E-13  8.30E-13  3.40E-06  8.23E-06
 -2.2653E-01 -8.3655E-02  6.1326E-02  6.1326E-02  2.0201E-01  2.1608E-01
  4.9920E-01  4.9920E-01  5.2097E-01  6.2741E-01  6.2898E-01  6.4625E-01
  6.4625E-01  7.1846E-01  8.0536E-01  8.0726E-01
  prteigrs : nnsclo,ikpt=   30   50 max resid (incl. the buffer)=  8.22821E-06
 Non-SCF case, kpt   51 (  0.46429  0.00000  0.46429), residuals and eigenvalues=
  8.97E-13  9.34E-13  3.13E-13  2.92E-13  2.64E-13  5.89E-13  4.35E-13  9.20E-13
  5.75E-13  9.35E-13  2.77E-13  2.67E-13  4.18E-13  3.42E-13  4.89E-05  7.83E-06
 -2.2424E-01 -8.7037E-02  6.0418E-02  6.0418E-02  2.0252E-01  2.1320E-01
  5.0558E-01  5.0558E-01  5.2848E-01  6.2340E-01  6.3511E-01  6.3863E-01
  6.3863E-01  7.1035E-01  8.2186E-01  8.2600E-01
  prteigrs : nnsclo,ikpt=   30   51 max resid (incl. the buffer)=  4.89303E-05
 Non-SCF case, kpt   52 (  0.48214  0.00000  0.48214), residuals and eigenvalues=
  8.26E-13  2.22E-13  7.26E-13  4.85E-13  3.68E-13  5.61E-13  7.22E-13  4.54E-13
  8.61E-13  9.90E-13  6.66E-13  4.85E-13  5.40E-13  6.59E-13  5.95E-05  9.90E-06
 -2.2280E-01 -8.9130E-02  5.9872E-02  5.9872E-02  2.0316E-01  2.1113E-01
  5.0978E-01  5.0978E-01  5.3355E-01  6.2028E-01  6.3368E-01  6.3368E-01
  6.3953E-01  7.0475E-01  8.3642E-01  8.4508E-01
  prteigrs : nnsclo,ikpt=   30   52 max resid (incl. the buffer)=  5.95180E-05
 Non-SCF case, kpt   53 (  0.50000  0.00000  0.50000), residuals and eigenvalues=
  1.70E-13  5.29E-13  1.37E-13  1.89E-13  2.12E-13  7.61E-13  4.29E-13  1.13E-13
  5.07E-13  7.76E-13  9.72E-13  9.23E-13  7.77E-13  6.33E-13  4.26E-04  7.54E-05
 -2.2231E-01 -8.9839E-02  5.9690E-02  5.9690E-02  2.0349E-01  2.1032E-01
  5.1126E-01  5.1126E-01  5.3536E-01  6.1909E-01  6.3196E-01  6.3196E-01
  6.4119E-01  7.0270E-01  8.5020E-01  8.6220E-01
  prteigrs : nnsclo,ikpt=   30   53 max resid (incl. the buffer)=  4.25652E-04
 Non-SCF case, kpt   54 (  0.51250  0.02500  0.51250), residuals and eigenvalues=
  7.49E-13  1.70E-13  9.89E-13  4.20E-13  2.25E-13  3.63E-13  8.15E-13  1.30E-13
  2.82E-13  3.64E-13  6.39E-13  3.62E-13  3.53E-13  8.02E-13  5.66E-06  1.68E-04
 -2.2229E-01 -8.9765E-02  5.8712E-02  5.9841E-02  2.0430E-01  2.1131E-01
  5.0884E-01  5.1005E-01  5.3544E-01  6.1524E-01  6.2656E-01  6.3833E-01
  6.4602E-01  7.0468E-01  8.4050E-01  8.5284E-01
  prteigrs : nnsclo,ikpt=   30   54 max resid (incl. the buffer)=  1.67855E-04
 Non-SCF case, kpt   55 (  0.52500  0.05000  0.52500), residuals and eigenvalues=
  8.18E-13  3.11E-13  9.44E-13  8.21E-13  4.06E-13  2.96E-13  4.73E-13  1.51E-13
  5.94E-13  3.04E-13  4.88E-13  5.05E-13  7.43E-13  4.15E-13  4.07E-06  4.96E-05
 -2.2225E-01 -8.9546E-02  5.5931E-02  6.0292E-02  2.0590E-01  2.1495E-01
  5.0275E-01  5.0655E-01  5.3430E-01  6.1140E-01  6.1748E-01  6.4988E-01
  6.5370E-01  7.1015E-01  8.2915E-01  8.3547E-01
  prteigrs : nnsclo,ikpt=   30   55 max resid (incl. the buffer)=  4.95756E-05
 Non-SCF case, kpt   56 (  0.53750  0.07500  0.53750), residuals and eigenvalues=
  4.66E-13  3.53E-13  3.27E-13  7.49E-14  2.38E-13  2.95E-13  7.11E-13  3.43E-13
  2.62E-13  7.27E-13  8.60E-13  4.69E-13  6.36E-13  8.93E-13  1.82E-06  3.85E-06
 -2.2218E-01 -8.9186E-02  5.1734E-02  6.1041E-02  2.0735E-01  2.2180E-01
  4.9473E-01  5.0111E-01  5.3022E-01  6.0735E-01  6.1123E-01  6.6223E-01
  6.6285E-01  7.1810E-01  8.1679E-01  8.2157E-01
  prteigrs : nnsclo,ikpt=   30   56 max resid (incl. the buffer)=  3.85131E-06
 Non-SCF case, kpt   57 (  0.55000  0.10000  0.55000), residuals and eigenvalues=
  9.04E-13  7.68E-13  5.29E-13  1.91E-13  2.14E-13  1.68E-13  7.71E-13  2.77E-13
  2.77E-13  4.80E-13  2.68E-13  6.29E-13  3.24E-13  7.72E-13  4.09E-08  1.23E-08
 -2.2212E-01 -8.8692E-02  4.6609E-02  6.2085E-02  2.0872E-01  2.3131E-01
  4.8578E-01  4.9419E-01  5.2309E-01  5.9665E-01  6.1457E-01  6.7157E-01
  6.7631E-01  7.2756E-01  8.0432E-01  8.0841E-01
  prteigrs : nnsclo,ikpt=   30   57 max resid (incl. the buffer)=  4.08878E-08
 Non-SCF case, kpt   58 (  0.56250  0.12500  0.56250), residuals and eigenvalues=
  4.20E-13  3.17E-13  9.38E-13  9.40E-13  5.60E-13  6.66E-13  2.00E-13  2.57E-13
  9.98E-13  6.16E-13  9.77E-13  6.49E-13  3.49E-13  8.87E-13  9.19E-09  3.82E-08
 -2.2209E-01 -8.8073E-02  4.1029E-02  6.3420E-02  2.1022E-01  2.4281E-01
  4.7644E-01  4.8618E-01  5.1377E-01  5.8569E-01  6.2031E-01  6.8166E-01
  6.8957E-01  7.3779E-01  7.9220E-01  7.9615E-01
  prteigrs : nnsclo,ikpt=   30   58 max resid (incl. the buffer)=  3.81610E-08
 Non-SCF case, kpt   59 (  0.57500  0.15000  0.57500), residuals and eigenvalues=
  5.43E-13  5.33E-13  2.65E-13  2.54E-13  9.08E-14  2.62E-13  8.74E-13  3.62E-13
  4.95E-13  3.57E-13  3.68E-13  6.88E-13  3.06E-13  5.68E-13  1.86E-11  1.87E-12
 -2.2213E-01 -8.7336E-02  3.5394E-02  6.5040E-02  2.1193E-01  2.5581E-01
  4.6701E-01  4.7745E-01  5.0316E-01  5.7464E-01  6.2736E-01  6.9234E-01
  7.0171E-01  7.4831E-01  7.8070E-01  7.8540E-01
  prteigrs : nnsclo,ikpt=   30   59 max resid (incl. the buffer)=  1.85954E-11
 Non-SCF case, kpt   60 (  0.58750  0.17500  0.58750), residuals and eigenvalues=
  5.47E-13  4.43E-13  3.35E-13  1.91E-13  1.28E-13  2.02E-13  6.13E-13  9.30E-13
  3.28E-13  3.41E-13  5.39E-13  3.81E-13  6.86E-13  8.74E-13  1.03E-12  2.36E-13
 -2.2227E-01 -8.6487E-02  3.0030E-02  6.6936E-02  2.1387E-01  2.6995E-01
  4.5772E-01  4.6825E-01  4.9189E-01  5.6367E-01  6.3492E-01  7.0343E-01
  7.1109E-01  7.5879E-01  7.6975E-01  7.7784E-01
  prteigrs : nnsclo,ikpt=   30   60 max resid (incl. the buffer)=  1.02990E-12
 Non-SCF case, kpt   61 (  0.60000  0.20000  0.60000), residuals and eigenvalues=
  1.26E-13  6.80E-13  3.50E-13  3.81E-13  2.88E-13  3.95E-13  4.42E-13  4.78E-13
  5.65E-13  5.57E-13  3.52E-13  7.37E-13  6.04E-13  9.07E-13  9.13E-13  1.55E-12
 -2.2256E-01 -8.5525E-02  2.5186E-02  6.9100E-02  2.1604E-01  2.8491E-01
  4.4875E-01  4.5880E-01  4.8034E-01  5.5285E-01  6.4238E-01  7.1475E-01
  7.1528E-01  7.5934E-01  7.6902E-01  7.7583E-01
  prteigrs : nnsclo,ikpt=   30   61 max resid (incl. the buffer)=  1.55357E-12
 Non-SCF case, kpt   62 (  0.61250  0.22500  0.61250), residuals and eigenvalues=
  2.18E-13  2.31E-13  3.79E-13  2.25E-13  7.64E-14  3.00E-13  6.41E-13  6.93E-13
  3.85E-13  3.90E-13  4.06E-13  9.88E-13  7.69E-13  6.49E-13  9.68E-11  3.81E-11
 -2.2306E-01 -8.4435E-02  2.1054E-02  7.1520E-02  2.1844E-01  3.0039E-01
  4.4032E-01  4.4923E-01  4.6876E-01  5.4229E-01  6.4923E-01  7.1314E-01
  7.2617E-01  7.4977E-01  7.7887E-01  7.8008E-01
  prteigrs : nnsclo,ikpt=   30   62 max resid (incl. the buffer)=  9.67601E-11
 Non-SCF case, kpt   63 (  0.62500  0.25000  0.62500), residuals and eigenvalues=
  1.98E-13  1.40E-13  3.70E-13  7.66E-13  5.20E-13  3.54E-13  6.60E-13  4.44E-13
  8.01E-13  2.97E-13  8.39E-13  3.71E-13  5.44E-13  6.89E-13  5.15E-10  1.57E-09
 -2.2381E-01 -8.3194E-02  1.7770E-02  7.4185E-02  2.2103E-01  3.1602E-01
  4.3271E-01  4.3967E-01  4.5730E-01  5.3202E-01  6.5489E-01  7.0653E-01
  7.3758E-01  7.4146E-01  7.8803E-01  7.8829E-01
  prteigrs : nnsclo,ikpt=   30   63 max resid (incl. the buffer)=  1.57024E-09


 scprqt:  WARNING -
  nstep=   30 was not enough non-SCF iterations to converge;
  maximum residual=  3.445E-08 exceeds tolwfr=  1.000E-12


--- !ResultsGS
iteration_state: {dtset: 2, }
comment   : Summary of ground state results
lattice_vectors:
- [  6.6542157,   0.0000000,   3.8418132, ]
- [  2.2180719,   6.2736547,   3.8418132, ]
- [  0.0000000,   0.0000000,   7.6836264, ]
lattice_lengths: [   7.68363,    7.68363,    7.68363, ]
lattice_angles: [ 60.000,  60.000,  60.000, ] # degrees, (23, 13, 12)
lattice_volume:   3.2076260E+02
convergence: {deltae:  0.000E+00, res2:  0.000E+00, residm:  3.445E-08, diffor:  0.000E+00, }
etotal    :  -1.12912269E+01
entropy   :   0.00000000E+00
fermie    :   1.49519749E-01
cartesian_stress_tensor: null
pressure_GPa: null
xred      :
- [  0.0000E+00,   0.0000E+00,   0.0000E+00, Ga]
- [  7.5000E-01,   7.5000E-01,   7.5000E-01, As]
cartesian_forces: null
force_length_stats: {min: null, max: null, mean: null, }
...

 Integrated electronic density in atomic spheres:
 ------------------------------------------------
 Atom  Sphere_radius  Integrated_density
    1        2.00000          1.04535820
    2        2.00000          2.41698425
================================================================================

 ----iterations are completed or convergence reached----

 Mean square residual over all n,k,spin=   39.518E-12; max=  34.448E-09
 reduced coordinates (array xred) for    2 atoms
       0.000000000000      0.000000000000      0.000000000000
       0.750000000000      0.750000000000      0.750000000000

 cartesian coordinates (angstrom) at end:
    1      0.00000000000000     0.00000000000000     0.00000000000000
    2      3.52125927642431     2.48990631266236     6.09899997335882
 length scales=  1.000000000000  1.000000000000  1.000000000000 bohr
              =  0.529177208590  0.529177208590  0.529177208590 angstroms
 prteigrs : about to open file gaasggao_DS2_EIG
 Eigenvalues (   eV  ) for nkpt=  63  k points:
 kpt#   1, nband= 16, wtk=  1.00000, kpt= -0.5000 -0.5000 -0.5000 (reduced coord)
  -6.70844   -2.24717    3.06834    3.06834    4.95485    8.70490    8.70490   11.61722
  14.03344   15.73340   15.73340   16.10316   16.97607   16.97607   22.93974   24.93772
 kpt#   2, nband= 16, wtk=  1.00000, kpt= -0.4792 -0.4792 -0.4792 (reduced coord)
  -6.71918   -2.22648    3.07156    3.07156    4.95836    8.70672    8.70672   11.61816
  13.95554   15.61543   15.61543   16.18206   17.11022   17.11022   22.76440   25.20031
 kpt#   3, nband= 16, wtk=  1.00000, kpt= -0.4583 -0.4583 -0.4583 (reduced coord)
  -6.75074   -2.16509    3.08121    3.08121    4.96884    8.71199    8.71199   11.61968
  13.75401   15.35067   15.35067   16.38530   17.42366   17.42366   22.36804   24.83247
 kpt#   4, nband= 16, wtk=  1.00000, kpt= -0.4375 -0.4375 -0.4375 (reduced coord)
  -6.80124   -2.06494    3.09724    3.09724    4.98625    8.72017    8.72017   11.61743
  13.48780   15.03965   15.03965   16.64982   17.81631   17.81631   21.90921   24.25261
 kpt#   5, nband= 16, wtk=  1.00000, kpt= -0.4167 -0.4167 -0.4167 (reduced coord)
  -6.86792   -1.92890    3.11958    3.11958    5.01044    8.73033    8.73033   11.60216
  13.20474   14.72269   14.72269   16.92003   18.24851   18.24851   21.46804   23.68558
 kpt#   6, nband= 16, wtk=  1.00000, kpt= -0.3958 -0.3958 -0.3958 (reduced coord)
  -6.94757   -1.76033    3.14810    3.14810    5.04122    8.74117    8.74117   11.55686
  12.94299   14.41562   14.41562   17.14539   18.70522   18.70522   21.09842   23.12984
 kpt#   7, nband= 16, wtk=  1.00000, kpt= -0.3750 -0.3750 -0.3750 (reduced coord)
  -7.03692   -1.56268    3.18264    3.18264    5.07832    8.75097    8.75097   11.45645
  12.73868   14.12646   14.12646   17.27214   19.17887   19.17887   20.85400   22.58778
 kpt#   8, nband= 16, wtk=  1.00000, kpt= -0.3542 -0.3542 -0.3542 (reduced coord)
  -7.13288   -1.33932    3.22301    3.22301    5.12134    8.75765    8.75765   11.28116
  12.61742   13.86056   13.86056   17.25379   19.66276   19.66276   20.78111   22.06351
 kpt#   9, nband= 16, wtk=  1.00000, kpt= -0.3333 -0.3333 -0.3333 (reduced coord)
  -7.23267   -1.09330    3.26894    3.26894    5.16974    8.75881    8.75881   11.03644
  12.57670   13.62225   13.62225   17.08089   20.14152   20.14152   20.88935   21.57095
 kpt#  10, nband= 16, wtk=  1.00000, kpt= -0.3125 -0.3125 -0.3125 (reduced coord)
  -7.33392   -0.82737    3.32011    3.32011    5.22274    8.75186    8.75186   10.74610
  12.59373   13.41542   13.41542   16.78801   20.51648   20.51648   21.15677   21.20791
 kpt#  11, nband= 16, wtk=  1.00000, kpt= -0.2917 -0.2917 -0.2917 (reduced coord)
  -7.43461   -0.54395    3.37612    3.37612    5.27930    8.73428    8.73428   10.43222
  12.64586   13.24357   13.24357   16.42394   20.36240   20.36240   21.39904   21.41114
 kpt#  12, nband= 16, wtk=  1.00000, kpt= -0.2708 -0.2708 -0.2708 (reduced coord)
  -7.53309   -0.24522    3.43647    3.43647    5.33794    8.70394    8.70394   10.10917
  12.71625   13.10966   13.10966   16.02930   19.93303   19.93303   21.88842   21.89024
 kpt#  13, nband= 16, wtk=  1.00000, kpt= -0.2500 -0.2500 -0.2500 (reduced coord)
  -7.62798    0.06690    3.50056    3.50056    5.39660    8.65948    8.65948    9.78595
  12.79058   13.01582   13.01582   15.63486   19.47694   19.47694   22.07888   22.43277
 kpt#  14, nband= 16, wtk=  1.00000, kpt= -0.2292 -0.2292 -0.2292 (reduced coord)
  -7.71817    0.39060    3.56767    3.56767    5.45238    8.60062    8.60062    9.46893
  12.85248   12.96301   12.96301   15.26775   19.02429   19.02429   21.71044   22.99674
 kpt#  15, nband= 16, wtk=  1.00000, kpt= -0.2083 -0.2083 -0.2083 (reduced coord)
  -7.80275    0.72422    3.63691    3.63691    5.50123    8.52840    8.52840    9.16365
  12.87937   12.95093   12.95093   14.95771   18.58163   18.58163   21.25073   23.57196
 kpt#  16, nband= 16, wtk=  1.00000, kpt= -0.1875 -0.1875 -0.1875 (reduced coord)
  -7.88099    1.06611    3.70725    3.70725    5.53759    8.44510    8.44510    8.87591
  12.84303   12.97801   12.97801   14.73812   18.15148   18.15148   20.79247   24.08102
 kpt#  17, nband= 16, wtk=  1.00000, kpt= -0.1667 -0.1667 -0.1667 (reduced coord)
  -7.95227    1.41465    3.77742    3.77742    5.55399    8.35405    8.35405    8.61246
  12.72387   13.04164   13.04164   14.63249   17.73539   17.73539   20.34906   24.70461
 kpt#  18, nband= 16, wtk=  1.00000, kpt= -0.1458 -0.1458 -0.1458 (reduced coord)
  -8.01612    1.76814    3.84599    3.84599    5.54120    8.25924    8.25924    8.38111
  12.53105   13.13840   13.13840   14.63475   17.33478   17.33478   19.92564   25.20644
 kpt#  19, nband= 16, wtk=  1.00000, kpt= -0.1250 -0.1250 -0.1250 (reduced coord)
  -8.07214    2.12480    3.91129    3.91129    5.48917    8.16505    8.16505    8.18972
  12.29659   13.26427   13.26427   14.71522   16.95130   16.95130   19.52633   25.87605
 kpt#  20, nband= 16, wtk=  1.00000, kpt= -0.1042 -0.1042 -0.1042 (reduced coord)
  -8.12001    2.48268    3.97148    3.97148    5.38945    8.04390    8.07588    8.07588
  12.05323   13.41453   13.41453   14.84254   16.58732   16.58732   19.15606   26.45643
 kpt#  21, nband= 16, wtk=  1.00000, kpt= -0.0833 -0.0833 -0.0833 (reduced coord)
  -8.15948    2.83957    4.02457    4.02457    5.23819    7.94399    7.99597    7.99597
  11.82533   13.58321   13.58321   14.99207   16.24672   16.24672   18.82175   26.91590
 kpt#  22, nband= 16, wtk=  1.00000, kpt= -0.0625 -0.0625 -0.0625 (reduced coord)
  -8.19038    3.19286    4.06856    4.06856    5.03763    7.88393    7.92921    7.92921
  11.63026   13.76155   13.76155   15.14340   15.93647   15.93647   18.53353   27.46797
 kpt#  23, nband= 16, wtk=  1.00000, kpt= -0.0417 -0.0417 -0.0417 (reduced coord)
  -8.21254    3.53922    4.10158    4.10158    4.79494    7.85313    7.87890    7.87890
  11.48099   13.93429   13.93429   15.27630   15.67049   15.67049   18.30585   27.99913
 kpt#  24, nband= 16, wtk=  1.00000, kpt= -0.0208 -0.0208 -0.0208 (reduced coord)
  -8.22587    3.87287    4.12208    4.12208    4.52091    7.84028    7.84763    7.84763
  11.38722   14.07209   14.07209   15.36920   15.47713   15.47713   18.15714   28.55489
 kpt#  25, nband= 16, wtk=  1.00000, kpt=  0.0000  0.0000  0.0000 (reduced coord)
  -8.23033    4.12904    4.12904    4.12904    4.28416    7.83701    7.83701    7.83701
  11.35523   14.12788   14.12788   15.40288   15.40288   15.40288   18.10501   28.71468
 kpt#  26, nband= 16, wtk=  1.00000, kpt=  0.0179  0.0000  0.0179 (reduced coord)
  -8.22596    3.88685    4.11311    4.11311    4.52579    7.81690    7.85898    7.85898
  11.38655   14.01591   14.13295   15.41348   15.41348   15.49101   18.15677   28.54590
 kpt#  27, nband= 16, wtk=  1.00000, kpt=  0.0357  0.0000  0.0357 (reduced coord)
  -8.21289    3.58177    4.06656    4.06656    4.82886    7.75888    7.92363    7.92363
  11.47810   13.74895   14.14817   15.44529   15.44529   15.68730   18.31158   28.25583
 kpt#  28, nband= 16, wtk=  1.00000, kpt=  0.0536  0.0000  0.0536 (reduced coord)
  -8.19114    3.27467    3.99269    3.99269    5.13145    7.66905    8.02762    8.02762
  11.62341   13.41751   14.17353   15.49834   15.49834   15.90578   18.56623   27.68620
 kpt#  29, nband= 16, wtk=  1.00000, kpt=  0.0714  0.0000  0.0714 (reduced coord)
  -8.16076    2.96842    3.89612    3.89612    5.42875    7.55553    8.16625    8.16625
  11.81309   13.06832   14.20903   15.57265   15.57265   16.11152   18.91193   27.11067
 kpt#  30, nband= 16, wtk=  1.00000, kpt=  0.0893  0.0000  0.0893 (reduced coord)
  -8.12183    2.66393    3.78185    3.78185    5.71663    7.42697    8.33443    8.33443
  12.03199   12.73053   14.25466   15.66829   15.66829   16.29864   19.33492   26.52605
 kpt#  31, nband= 16, wtk=  1.00000, kpt=  0.1071  0.0000  0.1071 (reduced coord)
  -8.07447    2.36168    3.65467    3.65467    5.98918    7.29227    8.52723    8.52723
  12.19419   12.49623   14.31041   15.78530   15.78530   16.47222   19.82009   25.99406
 kpt#  32, nband= 16, wtk=  1.00000, kpt=  0.1250  0.0000  0.1250 (reduced coord)
  -8.01879    2.06204    3.51879    3.51879    6.23596    7.16246    8.74033    8.74033
  12.00590   12.66351   14.37627   15.92372   15.92372   16.63977   20.35417   25.43501
 kpt#  33, nband= 16, wtk=  1.00000, kpt=  0.1429  0.0000  0.1429 (reduced coord)
  -7.95497    1.76528    3.37773    3.37773    6.43413    7.05841    8.97004    8.97004
  11.74255   12.96164   14.45221   16.08360   16.08360   16.80793   20.92689   24.90795
 kpt#  34, nband= 16, wtk=  1.00000, kpt=  0.1607  0.0000  0.1607 (reduced coord)
  -7.88320    1.47168    3.23439    3.23439    6.53267    7.02651    9.21332    9.21332
  11.51133   13.28939   14.53823   16.26495   16.26495   16.98183   21.53067   24.37555
 kpt#  35, nband= 16, wtk=  1.00000, kpt=  0.1786  0.0000  0.1786 (reduced coord)
  -7.80374    1.18149    3.09106    3.09106    6.50240    7.08921    9.46770    9.46770
  11.33117   13.63491   14.63427   16.46777   16.46777   17.16523   22.16001   23.85889
 kpt#  36, nband= 16, wtk=  1.00000, kpt=  0.1964  0.0000  0.1964 (reduced coord)
  -7.71686    0.89503    2.94963    2.94963    6.40590    7.17644    9.73116    9.73116
  11.21402   13.99331   14.74031   16.69200   16.69200   17.36092   22.81295   23.35133
 kpt#  37, nband= 16, wtk=  1.00000, kpt=  0.2143  0.0000  0.2143 (reduced coord)
  -7.62293    0.61261    2.81159    2.81159    6.29129    7.23434   10.00203   10.00203
  11.16809   14.36090   14.85629   16.93755   16.93755   17.57105   22.85295   22.89850
 kpt#  38, nband= 16, wtk=  1.00000, kpt=  0.2321  0.0000  0.2321 (reduced coord)
  -7.52236    0.33467    2.67815    2.67815    6.17510    7.24532   10.27893   10.27893
  11.19597   14.73415   14.98213   17.20425   17.20425   17.79731   22.36426   22.36429
 kpt#  39, nband= 16, wtk=  1.00000, kpt=  0.2500  0.0000  0.2500 (reduced coord)
  -7.41567    0.06169    2.55030    2.55030    6.06340    7.20832   10.56069   10.56069
  11.29353   15.10911   15.11774   17.49188   17.49189   18.04113   21.88588   21.88599
 kpt#  40, nband= 16, wtk=  1.00000, kpt=  0.2679  0.0000  0.2679 (reduced coord)
  -7.30346   -0.20570    2.42883    2.42883    5.95901    7.13049   10.84628   10.84628
  11.45126   15.26299   15.48107   17.80010   17.80010   18.30373   21.41831   21.41836
 kpt#  41, nband= 16, wtk=  1.00000, kpt=  0.2857  0.0000  0.2857 (reduced coord)
  -7.18649   -0.46674    2.31442    2.31442    5.86348    7.02226   11.13474   11.13474
  11.65724   15.41770   15.84402   18.12838   18.12838   18.58615   20.96233   20.96233
 kpt#  42, nband= 16, wtk=  1.00000, kpt=  0.3036  0.0000  0.3036 (reduced coord)
  -7.06566   -0.72049    2.20761    2.20761    5.77780    6.89410   11.42509   11.42509
  11.89977   15.58163   16.19015   18.47578   18.47578   18.88920   20.51924   20.51924
 kpt#  43, nband= 16, wtk=  1.00000, kpt=  0.3214  0.0000  0.3214 (reduced coord)
  -6.94209   -0.96578    2.10886    2.10886    5.70264    6.75490   11.71630   11.71630
  12.16867   15.75445   16.50921   18.83970   18.83970   19.21331   20.09210   20.09210
 kpt#  44, nband= 16, wtk=  1.00000, kpt=  0.3393  0.0000  0.3393 (reduced coord)
  -6.81715   -1.20119    2.01856    2.01856    5.63850    6.61158   12.00709   12.00709
  12.45552   15.93567   16.78815   19.20284   19.20284   19.55835   19.69896   19.69896
 kpt#  45, nband= 16, wtk=  1.00000, kpt=  0.3571  0.0000  0.3571 (reduced coord)
  -6.69254   -1.42495    1.93702    1.93702    5.58576    6.46935   12.29582   12.29582
  12.75332   16.12460   17.01176   19.21087   19.21087   19.69531   19.69531   19.92317
 kpt#  46, nband= 16, wtk=  1.00000, kpt=  0.3750  0.0000  0.3750 (reduced coord)
  -6.57035   -1.63490    1.86452    1.86452    5.54466    6.33201   12.58025   12.58025
  13.05587   16.32017   17.16535   18.85178   18.85178   20.09492   20.09493   20.30536
 kpt#  47, nband= 16, wtk=  1.00000, kpt=  0.3929  0.0000  0.3929 (reduced coord)
  -6.45312   -1.82840    1.80128    1.80128    5.51536    6.20239   12.85718   12.85718
  13.35715   16.52074   17.24003   18.49233   18.49233   20.43452   20.53380   20.53429
 kpt#  48, nband= 16, wtk=  1.00000, kpt=  0.4107  0.0000  0.4107 (reduced coord)
  -6.34392   -2.00231    1.74748    1.74748    5.49788    6.08262   13.12190   13.12190
  13.65048   16.72367   17.23805   18.15504   18.15504   20.11359   20.99360   20.99796
 kpt#  49, nband= 16, wtk=  1.00000, kpt=  0.4286  0.0000  0.4286 (reduced coord)
  -6.24632   -2.15298    1.70327    1.70327    5.49198    5.97451   13.36751   13.36751
  13.92745   16.92447   17.17423   17.84918   17.84918   19.81624   21.47145   21.48510
 kpt#  50, nband= 16, wtk=  1.00000, kpt=  0.4464  0.0000  0.4464 (reduced coord)
  -6.16427   -2.27637    1.66876    1.66876    5.49694    5.87989   13.58399   13.58399
  14.17642   17.07281   17.11530   17.58549   17.58549   19.55029   21.91508   21.96659
 kpt#  51, nband= 16, wtk=  1.00000, kpt=  0.4643  0.0000  0.4643 (reduced coord)
  -6.10184   -2.36839    1.64405    1.64405    5.51079    5.80149   13.75760   13.75760
  14.38081   16.96353   17.28230   17.37801   17.37801   19.32964   22.36405   22.47655
 kpt#  52, nband= 16, wtk=  1.00000, kpt=  0.4821  0.0000  0.4821 (reduced coord)
  -6.06266   -2.42534    1.62920    1.62920    5.52826    5.74510   13.87190   13.87190
  14.51870   16.87856   17.24333   17.24333   17.40258   19.17717   22.76013   22.99574
 kpt#  53, nband= 16, wtk=  1.00000, kpt=  0.5000  0.0000  0.5000 (reduced coord)
  -6.04928   -2.44464    1.62425    1.62425    5.53731    5.72304   13.91206   13.91206
  14.56799   16.84623   17.19637   17.19637   17.44759   19.12142   23.13502   23.46173
 kpt#  54, nband= 16, wtk=  1.00000, kpt=  0.5125  0.0250  0.5125 (reduced coord)
  -6.04884   -2.44263    1.59765    1.62834    5.55923    5.75001   13.84616   13.87907
  14.56995   16.74154   17.04954   17.36971   17.57899   19.17524   22.87125   23.20702
 kpt#  55, nband= 16, wtk=  1.00000, kpt=  0.5250  0.0500  0.5250 (reduced coord)
  -6.04760   -2.43667    1.52196    1.64062    5.60282    5.84904   13.68054   13.78385
  14.53898   16.63717   16.80252   17.68401   17.78810   19.32413   22.56229   22.73429
 kpt#  56, nband= 16, wtk=  1.00000, kpt=  0.5375  0.0750  0.5375 (reduced coord)
  -6.04591   -2.42686    1.40776    1.66101    5.64225    6.03554   13.46228   13.63602
  14.42815   16.52679   16.63237   18.02009   18.03714   19.54060   22.22603   22.35608
 kpt#  57, nband= 16, wtk=  1.00000, kpt=  0.5500  0.1000  0.5500 (reduced coord)
  -6.04428   -2.41342    1.26831    1.68943    5.67966    6.29430   13.21887   13.44751
  14.23400   16.23580   16.72328   18.27435   18.40337   19.79792   21.88656   21.99790
 kpt#  58, nband= 16, wtk=  1.00000, kpt=  0.5625  0.1250  0.5625 (reduced coord)
  -6.04347   -2.39658    1.11645    1.72576    5.72051    6.60719   12.96466   13.22971
  13.98029   15.93735   16.87950   18.54892   18.76418   20.07637   21.55676   21.66421
 kpt#  59, nband= 16, wtk=  1.00000, kpt=  0.5750  0.1500  0.5750 (reduced coord)
  -6.04442   -2.37654    0.96313    1.76982    5.76699    6.96098   12.70812   12.99205
  13.69167   15.63685   17.07132   18.83950   19.09449   20.36259   21.24390   21.37190
 kpt#  60, nband= 16, wtk=  1.00000, kpt=  0.5875  0.1750  0.5875 (reduced coord)
  -6.04826   -2.35344    0.81715    1.82142    5.81977    7.34565   12.45524   12.74185
  13.38505   15.33811   17.27697   19.14118   19.34984   20.64771   20.94599   21.16604
 kpt#  61, nband= 16, wtk=  1.00000, kpt=  0.6000  0.2000  0.6000 (reduced coord)
  -6.05628   -2.32724    0.68535    1.88030    5.87887    7.75277   12.21123   12.48457
  13.07084   15.04391   17.48018   19.44938   19.46384   20.66271   20.92597   21.11136
 kpt#  62, nband= 16, wtk=  1.00000, kpt=  0.6125  0.2250  0.6125 (reduced coord)
  -6.06982   -2.29760    0.57291    1.94617    5.94398    8.17403   11.98180   12.22428
  12.75553   14.75634   17.66651   19.40543   19.76023   20.40235   21.19401   21.22704
 kpt#  63, nband= 16, wtk=  1.00000, kpt=  0.6250  0.2500  0.6250 (reduced coord)
  -6.09029   -2.26382    0.48354    2.01869    6.01455    8.59939   11.77462   11.96400
  12.44367   14.47704   17.82036   19.22571   20.07066   20.17621   21.44340   21.45042

== END DATASET(S) ==============================================================
================================================================================
  
 -outvars: echo values of variables after computation  --------
            acell      1.0000000000E+00  1.0000000000E+00  1.0000000000E+00 Bohr
              amu      6.97230000E+01  7.49215900E+01
      chksymbreak           0
             ecut      2.00000000E+01 Hartree
           enunit1          0
           enunit2          1
           etotal1    -1.1291226926E+01
            fcart1     6.2154628954E-26  4.3949959615E-26 -3.5884991758E-26
                      -6.2154628954E-26 -4.3949959615E-26  3.5884991758E-26
-          fftalg         112
           getden1          0
           getden2         -1
             iscf1          7
             iscf2         -2
           istwfk2       0    0    0    0    0    0    0    0    0    0
                         0    0    0    0    0    0    0    0    0    0
                         0    0    0    0    2    0    0    0    0    0
                         0    0    0    0    0    0    0    0    0    0
                         0    0    0    0    0    0    0    0    0    0
                       outvar_i_n : Printing only first  50 k-points.
              ixc          23
           jdtset        1    2
              kpt1     6.25000000E-02  6.25000000E-02  6.25000000E-02
                       1.87500000E-01  6.25000000E-02  6.25000000E-02
                       3.12500000E-01  6.25000000E-02  6.25000000E-02
                       4.37500000E-01  6.25000000E-02  6.25000000E-02
                      -4.37500000E-01  6.25000000E-02  6.25000000E-02
                      -3.12500000E-01  6.25000000E-02  6.25000000E-02
                      -1.87500000E-01  6.25000000E-02  6.25000000E-02
                      -6.25000000E-02  6.25000000E-02  6.25000000E-02
                       1.87500000E-01  1.87500000E-01  6.25000000E-02
                       3.12500000E-01  1.87500000E-01  6.25000000E-02
                       4.37500000E-01  1.87500000E-01  6.25000000E-02
                      -4.37500000E-01  1.87500000E-01  6.25000000E-02
                      -3.12500000E-01  1.87500000E-01  6.25000000E-02
                      -1.87500000E-01  1.87500000E-01  6.25000000E-02
                      -6.25000000E-02  1.87500000E-01  6.25000000E-02
                       3.12500000E-01  3.12500000E-01  6.25000000E-02
                       4.37500000E-01  3.12500000E-01  6.25000000E-02
                      -4.37500000E-01  3.12500000E-01  6.25000000E-02
                      -3.12500000E-01  3.12500000E-01  6.25000000E-02
                      -1.87500000E-01  3.12500000E-01  6.25000000E-02
                      -6.25000000E-02  3.12500000E-01  6.25000000E-02
                       4.37500000E-01  4.37500000E-01  6.25000000E-02
                      -4.37500000E-01  4.37500000E-01  6.25000000E-02
                      -3.12500000E-01  4.37500000E-01  6.25000000E-02
                      -1.87500000E-01  4.37500000E-01  6.25000000E-02
                      -6.25000000E-02  4.37500000E-01  6.25000000E-02
                      -4.37500000E-01 -4.37500000E-01  6.25000000E-02
                      -3.12500000E-01 -4.37500000E-01  6.25000000E-02
                      -1.87500000E-01 -4.37500000E-01  6.25000000E-02
                      -3.12500000E-01 -3.12500000E-01  6.25000000E-02
                      -1.87500000E-01 -3.12500000E-01  6.25000000E-02
                      -1.87500000E-01 -1.87500000E-01  6.25000000E-02
                       1.87500000E-01  1.87500000E-01  1.87500000E-01
                       3.12500000E-01  1.87500000E-01  1.87500000E-01
                       4.37500000E-01  1.87500000E-01  1.87500000E-01
                      -4.37500000E-01  1.87500000E-01  1.87500000E-01
                      -3.12500000E-01  1.87500000E-01  1.87500000E-01
                      -1.87500000E-01  1.87500000E-01  1.87500000E-01
                       3.12500000E-01  3.12500000E-01  1.87500000E-01
                       4.37500000E-01  3.12500000E-01  1.87500000E-01
                      -4.37500000E-01  3.12500000E-01  1.87500000E-01
                      -3.12500000E-01  3.12500000E-01  1.87500000E-01
                      -1.87500000E-01  3.12500000E-01  1.87500000E-01
                       4.37500000E-01  4.37500000E-01  1.87500000E-01
                      -4.37500000E-01  4.37500000E-01  1.87500000E-01
                      -3.12500000E-01  4.37500000E-01  1.87500000E-01
                      -1.87500000E-01  4.37500000E-01  1.87500000E-01
                      -4.37500000E-01 -4.37500000E-01  1.87500000E-01
                      -3.12500000E-01 -4.37500000E-01  1.87500000E-01
                      -3.12500000E-01 -3.12500000E-01  1.87500000E-01
              kpt2    -5.00000000E-01 -5.00000000E-01 -5.00000000E-01
                      -4.79166667E-01 -4.79166667E-01 -4.79166667E-01
                      -4.58333333E-01 -4.58333333E-01 -4.58333333E-01
                      -4.37500000E-01 -4.37500000E-01 -4.37500000E-01
                      -4.16666667E-01 -4.16666667E-01 -4.16666667E-01
                      -3.95833333E-01 -3.95833333E-01 -3.95833333E-01
                      -3.75000000E-01 -3.75000000E-01 -3.75000000E-01
                      -3.54166667E-01 -3.54166667E-01 -3.54166667E-01
                      -3.33333333E-01 -3.33333333E-01 -3.33333333E-01
                      -3.12500000E-01 -3.12500000E-01 -3.12500000E-01
                      -2.91666667E-01 -2.91666667E-01 -2.91666667E-01
                      -2.70833333E-01 -2.70833333E-01 -2.70833333E-01
                      -2.50000000E-01 -2.50000000E-01 -2.50000000E-01
                      -2.29166667E-01 -2.29166667E-01 -2.29166667E-01
                      -2.08333333E-01 -2.08333333E-01 -2.08333333E-01
                      -1.87500000E-01 -1.87500000E-01 -1.87500000E-01
                      -1.66666667E-01 -1.66666667E-01 -1.66666667E-01
                      -1.45833333E-01 -1.45833333E-01 -1.45833333E-01
                      -1.25000000E-01 -1.25000000E-01 -1.25000000E-01
                      -1.04166667E-01 -1.04166667E-01 -1.04166667E-01
                      -8.33333333E-02 -8.33333333E-02 -8.33333333E-02
                      -6.25000000E-02 -6.25000000E-02 -6.25000000E-02
                      -4.16666667E-02 -4.16666667E-02 -4.16666667E-02
                      -2.08333333E-02 -2.08333333E-02 -2.08333333E-02
                       0.00000000E+00  0.00000000E+00  0.00000000E+00
                       1.78571429E-02  0.00000000E+00  1.78571429E-02
                       3.57142857E-02  0.00000000E+00  3.57142857E-02
                       5.35714286E-02  0.00000000E+00  5.35714286E-02
                       7.14285714E-02  0.00000000E+00  7.14285714E-02
                       8.92857143E-02  0.00000000E+00  8.92857143E-02
                       1.07142857E-01  0.00000000E+00  1.07142857E-01
                       1.25000000E-01  0.00000000E+00  1.25000000E-01
                       1.42857143E-01  0.00000000E+00  1.42857143E-01
                       1.60714286E-01  0.00000000E+00  1.60714286E-01
                       1.78571429E-01  0.00000000E+00  1.78571429E-01
                       1.96428571E-01  0.00000000E+00  1.96428571E-01
                       2.14285714E-01  0.00000000E+00  2.14285714E-01
                       2.32142857E-01  0.00000000E+00  2.32142857E-01
                       2.50000000E-01  0.00000000E+00  2.50000000E-01
                       2.67857143E-01  0.00000000E+00  2.67857143E-01
                       2.85714286E-01  0.00000000E+00  2.85714286E-01
                       3.03571429E-01  0.00000000E+00  3.03571429E-01
                       3.21428571E-01  0.00000000E+00  3.21428571E-01
                       3.39285714E-01  0.00000000E+00  3.39285714E-01
                       3.57142857E-01  0.00000000E+00  3.57142857E-01
                       3.75000000E-01  0.00000000E+00  3.75000000E-01
                       3.92857143E-01  0.00000000E+00  3.92857143E-01
                       4.10714286E-01  0.00000000E+00  4.10714286E-01
                       4.28571429E-01  0.00000000E+00  4.28571429E-01
                       4.46428571E-01  0.00000000E+00  4.46428571E-01
                       outvar_i_n : Printing only first  50 k-points.
           kptopt1          1
           kptopt2         -3
         kptrlatt        8    0    0      0    8    0      0    0    8
          kptrlen1     6.14690114E+01
          kptrlen2     3.00000000E+01
P           mkmem1         60
P           mkmem2         63
            natom           2
            nband1         16
            nband2         16
           nbdbuf1          0
           nbdbuf2          2
           ndtset           2
           ndivsm1          0
           ndivsm2         10
            ngfft          32      32      32
             nkpt1         60
             nkpt2         63
             nsym          24
           ntypat           2
              occ      2.000000  2.000000  2.000000  2.000000  0.000000  0.000000
                       0.000000  0.000000  0.000000  0.000000  0.000000  0.000000
                       0.000000  0.000000  0.000000  0.000000
            rprim      6.6542156753E+00  0.0000000000E+00  3.8418132114E+00
                       2.2180718918E+00  6.2736547033E+00  3.8418132114E+00
                       0.0000000000E+00  0.0000000000E+00  7.6836264227E+00
           shiftk      5.00000000E-01  5.00000000E-01  5.00000000E-01
          spgroup         216
           strten1     7.2815483061E-05  7.2815483063E-05  7.2815483067E-05
                      -2.0581033152E-15 -2.9106058752E-15 -2.0582065462E-15
           symrel      1  0  0   0  1  0   0  0  1       0 -1  1   0 -1  0   1 -1  0
                      -1  0  0  -1  0  1  -1  1  0       0  1 -1   1  0 -1   0  0 -1
                      -1  0  0  -1  1  0  -1  0  1       0 -1  1   1 -1  0   0 -1  0
                       1  0  0   0  0  1   0  1  0       0  1 -1   0  0 -1   1  0 -1
                      -1  0  1  -1  1  0  -1  0  0       0 -1  0   1 -1  0   0 -1  1
                       1  0 -1   0  0 -1   0  1 -1       0  1  0   0  0  1   1  0  0
                       1  0 -1   0  1 -1   0  0 -1       0 -1  0   0 -1  1   1 -1  0
                      -1  0  1  -1  0  0  -1  1  0       0  1  0   1  0  0   0  0  1
                       0  0 -1   0  1 -1   1  0 -1       1 -1  0   0 -1  1   0 -1  0
                       0  0  1   1  0  0   0  1  0      -1  1  0  -1  0  0  -1  0  1
                       0  0  1   0  1  0   1  0  0       1 -1  0   0 -1  0   0 -1  1
                       0  0 -1   1  0 -1   0  1 -1      -1  1  0  -1  0  1  -1  0  0
           toldfe1     1.00000000E-06 Hartree
           toldfe2     0.00000000E+00 Hartree
           tolwfr1     0.00000000E+00
           tolwfr2     1.00000000E-12
            typat      1  2
              wtk1       0.00391    0.01172    0.01172    0.01172    0.01172    0.01172
                         0.01172    0.01172    0.01172    0.02344    0.02344    0.02344
                         0.02344    0.02344    0.02344    0.01172    0.02344    0.02344
                         0.02344    0.02344    0.02344    0.01172    0.02344    0.02344
                         0.02344    0.02344    0.01172    0.02344    0.02344    0.01172
                         0.02344    0.01172    0.00391    0.01172    0.01172    0.01172
                         0.01172    0.01172    0.01172    0.02344    0.02344    0.02344
                         0.02344    0.01172    0.02344    0.02344    0.02344    0.01172
                         0.02344    0.01172
              wtk2       1.00000    1.00000    1.00000    1.00000    1.00000    1.00000
                         1.00000    1.00000    1.00000    1.00000    1.00000    1.00000
                         1.00000    1.00000    1.00000    1.00000    1.00000    1.00000
                         1.00000    1.00000    1.00000    1.00000    1.00000    1.00000
                         1.00000    1.00000    1.00000    1.00000    1.00000    1.00000
                         1.00000    1.00000    1.00000    1.00000    1.00000    1.00000
                         1.00000    1.00000    1.00000    1.00000    1.00000    1.00000
                         1.00000    1.00000    1.00000    1.00000    1.00000    1.00000
                         1.00000    1.00000
                       outvars : Printing only first  50 k-points.
           xangst      0.0000000000E+00  0.0000000000E+00  0.0000000000E+00
                       3.5212592764E+00  2.4899063127E+00  6.0989999734E+00
            xcart      0.0000000000E+00  0.0000000000E+00  0.0000000000E+00
                       6.6542156753E+00  4.7052410275E+00  1.1525439634E+01
             xred      0.0000000000E+00  0.0000000000E+00  0.0000000000E+00
                       7.5000000000E-01  7.5000000000E-01  7.5000000000E-01
            znucl       31.00000   33.00000

================================================================================


- Timing analysis has been suppressed with timopt=0



================================================================================

 Suggested references for the acknowledgment of ABINIT usage.

 The users of ABINIT have little formal obligations with respect to the ABINIT group
 (those specified in the GNU General Public License, http://www.gnu.org/copyleft/gpl.txt).
 However, it is common practice in the scientific literature,
 to acknowledge the efforts of people that have made the research possible.
 In this spirit, please find below suggested citations of work written by ABINIT developers,
 corresponding to implementations inside of ABINIT that you have used in the present run.
 Note also that it will be of great value to readers of publications presenting these results,
 to read papers enabling them to understand the theoretical formalism and details
 of the ABINIT implementation.
 For information on why they are suggested, see also https://docs.abinit.org/theory/acknowledgments.
-
- [1] The Abinit project: Impact, environment and recent developments.
- Computer Phys. Comm. 248, 107042 (2020).
- X.Gonze, B. Amadon, G. Antonius, F.Arnardi, L.Baguet, J.-M.Beuken,
- J.Bieder, F.Bottin, J.Bouchet, E.Bousquet, N.Brouwer, F.Bruneval,
- G.Brunin, T.Cavignac, J.-B. Charraud, Wei Chen, M.Cote, S.Cottenier,
- J.Denier, G.Geneste, Ph.Ghosez, M.Giantomassi, Y.Gillet, O.Gingras,
- D.R.Hamann, G.Hautier, Xu He, N.Helbig, N.Holzwarth, Y.Jia, F.Jollet,
- W.Lafargue-Dit-Hauret, K.Lejaeghere, M.A.L.Marques, A.Martin, C.Martins,
- H.P.C. Miranda, F.Naccarato, K. Persson, G.Petretto, V.Planes, Y.Pouillon,
- S.Prokhorenko, F.Ricci, G.-M.Rignanese, A.H.Romero, M.M.Schmitt, M.Torrent,
- M.J.van Setten, B.Van Troeye, M.J.Verstraete, G.Zerah and J.W.Zwanzig
- Comment: the fifth generic paper describing the ABINIT project.
- Note that a version of this paper, that is not formatted for Computer Phys. Comm. 
- is available at https://www.abinit.org/sites/default/files/ABINIT20.pdf .
- The licence allows the authors to put it on the Web.
- DOI and bibtex: see https://docs.abinit.org/theory/bibliography/#gonze2020
-
- [2] Optimized norm-conserving Vanderbilt pseudopotentials.
- D.R. Hamann, Phys. Rev. B 88, 085117 (2013).
- Comment: Some pseudopotential generated using the ONCVPSP code were used.
- DOI and bibtex: see https://docs.abinit.org/theory/bibliography/#hamann2013
-
- [3] ABINIT: Overview, and focus on selected capabilities
- J. Chem. Phys. 152, 124102 (2020).
- A. Romero, D.C. Allan, B. Amadon, G. Antonius, T. Applencourt, L.Baguet,
- J.Bieder, F.Bottin, J.Bouchet, E.Bousquet, F.Bruneval,
- G.Brunin, D.Caliste, M.Cote,
- J.Denier, C. Dreyer, Ph.Ghosez, M.Giantomassi, Y.Gillet, O.Gingras,
- D.R.Hamann, G.Hautier, F.Jollet, G. Jomard,
- A.Martin, 
- H.P.C. Miranda, F.Naccarato, G.Petretto, N.A. Pike, V.Planes,
- S.Prokhorenko, T. Rangel, F.Ricci, G.-M.Rignanese, M.Royo, M.Stengel, M.Torrent,
- M.J.van Setten, B.Van Troeye, M.J.Verstraete, J.Wiktor, J.W.Zwanziger, and X.Gonze.
- Comment: a global overview of ABINIT, with focus on selected capabilities .
- Note that a version of this paper, that is not formatted for J. Chem. Phys 
- is available at https://www.abinit.org/sites/default/files/ABINIT20_JPC.pdf .
- The licence allows the authors to put it on the Web.
- DOI and bibtex: see https://docs.abinit.org/theory/bibliography/#romero2020
-
- [4] Recent developments in the ABINIT software package.
- Computer Phys. Comm. 205, 106 (2016).
- X.Gonze, F.Jollet, F.Abreu Araujo, D.Adams, B.Amadon, T.Applencourt,
- C.Audouze, J.-M.Beuken, J.Bieder, A.Bokhanchuk, E.Bousquet, F.Bruneval
- D.Caliste, M.Cote, F.Dahm, F.Da Pieve, M.Delaveau, M.Di Gennaro,
- B.Dorado, C.Espejo, G.Geneste, L.Genovese, A.Gerossier, M.Giantomassi,
- Y.Gillet, D.R.Hamann, L.He, G.Jomard, J.Laflamme Janssen, S.Le Roux,
- A.Levitt, A.Lherbier, F.Liu, I.Lukacevic, A.Martin, C.Martins,
- M.J.T.Oliveira, S.Ponce, Y.Pouillon, T.Rangel, G.-M.Rignanese,
- A.H.Romero, B.Rousseau, O.Rubel, A.A.Shukri, M.Stankovski, M.Torrent,
- M.J.Van Setten, B.Van Troeye, M.J.Verstraete, D.Waroquier, J.Wiktor,
- B.Xu, A.Zhou, J.W.Zwanziger.
- Comment: the fourth generic paper describing the ABINIT project.
- Note that a version of this paper, that is not formatted for Computer Phys. Comm. 
- is available at https://www.abinit.org/sites/default/files/ABINIT16.pdf .
- The licence allows the authors to put it on the Web.
- DOI and bibtex: see https://docs.abinit.org/theory/bibliography/#gonze2016
-
- And optionally:
-
- [5] ABINIT: First-principles approach of materials and nanosystem properties.
- Computer Phys. Comm. 180, 2582-2615 (2009).
- X. Gonze, B. Amadon, P.-M. Anglade, J.-M. Beuken, F. Bottin, P. Boulanger, F. Bruneval,
- D. Caliste, R. Caracas, M. Cote, T. Deutsch, L. Genovese, Ph. Ghosez, M. Giantomassi
- S. Goedecker, D.R. Hamann, P. Hermet, F. Jollet, G. Jomard, S. Leroux, M. Mancini, S. Mazevet,
- M.J.T. Oliveira, G. Onida, Y. Pouillon, T. Rangel, G.-M. Rignanese, D. Sangalli, R. Shaltaf,
- M. Torrent, M.J. Verstraete, G. Zerah, J.W. Zwanziger
- Comment: the third generic paper describing the ABINIT project.
- Note that a version of this paper, that is not formatted for Computer Phys. Comm. 
- is available at https://www.abinit.org/sites/default/files/ABINIT_CPC_v10.pdf .
- The licence allows the authors to put it on the Web.
- DOI and bibtex: see https://docs.abinit.org/theory/bibliography/#gonze2009
-
- Proc.   0 individual time (sec): cpu=         49.5  wall=         49.5

================================================================================

 Calculation completed.
.Delivered   5 WARNINGs and   7 COMMENTs to log file.
+Overall time at end (sec) : cpu=         49.5  wall=         49.5
