
.Version 9.4.2 of ABINIT 
.(MPI version, prepared for a x86_64_linux_gnu9.3 computer) 

.Copyright (C) 1998-2021 ABINIT group . 
 ABINIT comes with ABSOLUTELY NO WARRANTY.
 It is free software, and you are welcome to redistribute it
 under certain conditions (GNU General Public License,
 see ~abinit/COPYING or http://www.gnu.org/copyleft/gpl.txt).

 ABINIT is a project of the Universite Catholique de Louvain,
 Corning Inc. and other collaborators, see ~abinit/doc/developers/contributors.txt .
 Please read https://docs.abinit.org/theory/acknowledgments for suggested
 acknowledgments of the ABINIT effort.
 For more information, see https://www.abinit.org .

.Starting date : Wed 25 Aug 2021.
- ( at 11h21 )
  
- input  file    -> gehyb.abi
- output file    -> gehyb.abo
- root for input  files -> gehybi
- root for output files -> gehybo


 DATASET    1 : space group Fd -3 m (#227); Bravais cF (face-center cubic)
================================================================================
 Values of the parameters that define the memory need for DATASET  1.
     intxc =       0    ionmov =       0      iscf =       7    lmnmax =       6
     lnmax =       6     mgfft =      32  mpssoang =       3    mqgrid =    3001
     natom =       2  nloc_mem =       1    nspden =       1   nspinor =       1
    nsppol =       1      nsym =      48    n1xccc =       0    ntypat =       1
    occopt =       1   xclevel =       2
-    mband =          16        mffmem =           1         mkmem =          60
       mpw =        1394          nfft =       32768          nkpt =          60
================================================================================
P This job should need less than                      32.042 Mbytes of memory.
  Rough estimation (10% accuracy) of disk space for files :
_ WF disk file :     20.422 Mbytes ; DEN or POT disk file :      0.252 Mbytes.
================================================================================


 DATASET    2 : space group Fd -3 m (#227); Bravais cF (face-center cubic)
================================================================================
 Values of the parameters that define the memory need for DATASET  2.
     intxc =       0    ionmov =       0      iscf =      -2    lmnmax =       6
     lnmax =       6     mgfft =      32  mpssoang =       3    mqgrid =    3001
     natom =       2  nloc_mem =       1    nspden =       1   nspinor =       1
    nsppol =       1      nsym =      48    n1xccc =       0    ntypat =       1
    occopt =       1   xclevel =       2
-    mband =          16        mffmem =           1         mkmem =          63
       mpw =        1395          nfft =       32768          nkpt =          63
================================================================================
P This job should need less than                      28.878 Mbytes of memory.
  Rough estimation (10% accuracy) of disk space for files :
_ WF disk file :     21.458 Mbytes ; DEN or POT disk file :      0.252 Mbytes.
================================================================================

--------------------------------------------------------------------------------
------------- Echo of variables that govern the present computation ------------
--------------------------------------------------------------------------------
-
- outvars: echo of selected default values                                      
-   iomode0 =  0 , fftalg0 =112 , wfoptalg0 =  0
-
- outvars: echo of global parameters not present in the input file              
-  max_nthreads =    0
-
 -outvars: echo values of preprocessed input variables --------
            acell      1.0000000000E+00  1.0000000000E+00  1.0000000000E+00 Bohr
              amu      7.26100000E+01
      chksymbreak           0
             ecut      2.00000000E+01 Hartree
           enunit1          0
           enunit2          1
-          fftalg         112
           getden1          0
           getden2         -1
             iscf1          7
             iscf2         -2
           istwfk2       0    0    0    0    0    0    0    0    0    0
                         0    0    0    0    0    0    0    0    0    0
                         0    0    0    0    2    0    0    0    0    0
                         0    0    0    0    0    0    0    0    0    0
                         0    0    0    0    0    0    0    0    0    0
                       outvar_i_n : Printing only first  50 k-points.
              ixc      -12208
           jdtset        1    2
              kpt1     6.25000000E-02  6.25000000E-02  6.25000000E-02
                       1.87500000E-01  6.25000000E-02  6.25000000E-02
                       3.12500000E-01  6.25000000E-02  6.25000000E-02
                       4.37500000E-01  6.25000000E-02  6.25000000E-02
                      -4.37500000E-01  6.25000000E-02  6.25000000E-02
                      -3.12500000E-01  6.25000000E-02  6.25000000E-02
                      -1.87500000E-01  6.25000000E-02  6.25000000E-02
                      -6.25000000E-02  6.25000000E-02  6.25000000E-02
                       1.87500000E-01  1.87500000E-01  6.25000000E-02
                       3.12500000E-01  1.87500000E-01  6.25000000E-02
                       4.37500000E-01  1.87500000E-01  6.25000000E-02
                      -4.37500000E-01  1.87500000E-01  6.25000000E-02
                      -3.12500000E-01  1.87500000E-01  6.25000000E-02
                      -1.87500000E-01  1.87500000E-01  6.25000000E-02
                      -6.25000000E-02  1.87500000E-01  6.25000000E-02
                       3.12500000E-01  3.12500000E-01  6.25000000E-02
                       4.37500000E-01  3.12500000E-01  6.25000000E-02
                      -4.37500000E-01  3.12500000E-01  6.25000000E-02
                      -3.12500000E-01  3.12500000E-01  6.25000000E-02
                      -1.87500000E-01  3.12500000E-01  6.25000000E-02
                      -6.25000000E-02  3.12500000E-01  6.25000000E-02
                       4.37500000E-01  4.37500000E-01  6.25000000E-02
                      -4.37500000E-01  4.37500000E-01  6.25000000E-02
                      -3.12500000E-01  4.37500000E-01  6.25000000E-02
                      -1.87500000E-01  4.37500000E-01  6.25000000E-02
                      -6.25000000E-02  4.37500000E-01  6.25000000E-02
                      -4.37500000E-01 -4.37500000E-01  6.25000000E-02
                      -3.12500000E-01 -4.37500000E-01  6.25000000E-02
                      -1.87500000E-01 -4.37500000E-01  6.25000000E-02
                      -3.12500000E-01 -3.12500000E-01  6.25000000E-02
                      -1.87500000E-01 -3.12500000E-01  6.25000000E-02
                      -1.87500000E-01 -1.87500000E-01  6.25000000E-02
                       1.87500000E-01  1.87500000E-01  1.87500000E-01
                       3.12500000E-01  1.87500000E-01  1.87500000E-01
                       4.37500000E-01  1.87500000E-01  1.87500000E-01
                      -4.37500000E-01  1.87500000E-01  1.87500000E-01
                      -3.12500000E-01  1.87500000E-01  1.87500000E-01
                      -1.87500000E-01  1.87500000E-01  1.87500000E-01
                       3.12500000E-01  3.12500000E-01  1.87500000E-01
                       4.37500000E-01  3.12500000E-01  1.87500000E-01
                      -4.37500000E-01  3.12500000E-01  1.87500000E-01
                      -3.12500000E-01  3.12500000E-01  1.87500000E-01
                      -1.87500000E-01  3.12500000E-01  1.87500000E-01
                       4.37500000E-01  4.37500000E-01  1.87500000E-01
                      -4.37500000E-01  4.37500000E-01  1.87500000E-01
                      -3.12500000E-01  4.37500000E-01  1.87500000E-01
                      -1.87500000E-01  4.37500000E-01  1.87500000E-01
                      -4.37500000E-01 -4.37500000E-01  1.87500000E-01
                      -3.12500000E-01 -4.37500000E-01  1.87500000E-01
                      -3.12500000E-01 -3.12500000E-01  1.87500000E-01
              kpt2    -5.00000000E-01 -5.00000000E-01 -5.00000000E-01
                      -4.79166667E-01 -4.79166667E-01 -4.79166667E-01
                      -4.58333333E-01 -4.58333333E-01 -4.58333333E-01
                      -4.37500000E-01 -4.37500000E-01 -4.37500000E-01
                      -4.16666667E-01 -4.16666667E-01 -4.16666667E-01
                      -3.95833333E-01 -3.95833333E-01 -3.95833333E-01
                      -3.75000000E-01 -3.75000000E-01 -3.75000000E-01
                      -3.54166667E-01 -3.54166667E-01 -3.54166667E-01
                      -3.33333333E-01 -3.33333333E-01 -3.33333333E-01
                      -3.12500000E-01 -3.12500000E-01 -3.12500000E-01
                      -2.91666667E-01 -2.91666667E-01 -2.91666667E-01
                      -2.70833333E-01 -2.70833333E-01 -2.70833333E-01
                      -2.50000000E-01 -2.50000000E-01 -2.50000000E-01
                      -2.29166667E-01 -2.29166667E-01 -2.29166667E-01
                      -2.08333333E-01 -2.08333333E-01 -2.08333333E-01
                      -1.87500000E-01 -1.87500000E-01 -1.87500000E-01
                      -1.66666667E-01 -1.66666667E-01 -1.66666667E-01
                      -1.45833333E-01 -1.45833333E-01 -1.45833333E-01
                      -1.25000000E-01 -1.25000000E-01 -1.25000000E-01
                      -1.04166667E-01 -1.04166667E-01 -1.04166667E-01
                      -8.33333333E-02 -8.33333333E-02 -8.33333333E-02
                      -6.25000000E-02 -6.25000000E-02 -6.25000000E-02
                      -4.16666667E-02 -4.16666667E-02 -4.16666667E-02
                      -2.08333333E-02 -2.08333333E-02 -2.08333333E-02
                       0.00000000E+00  0.00000000E+00  0.00000000E+00
                       1.78571429E-02  0.00000000E+00  1.78571429E-02
                       3.57142857E-02  0.00000000E+00  3.57142857E-02
                       5.35714286E-02  0.00000000E+00  5.35714286E-02
                       7.14285714E-02  0.00000000E+00  7.14285714E-02
                       8.92857143E-02  0.00000000E+00  8.92857143E-02
                       1.07142857E-01  0.00000000E+00  1.07142857E-01
                       1.25000000E-01  0.00000000E+00  1.25000000E-01
                       1.42857143E-01  0.00000000E+00  1.42857143E-01
                       1.60714286E-01  0.00000000E+00  1.60714286E-01
                       1.78571429E-01  0.00000000E+00  1.78571429E-01
                       1.96428571E-01  0.00000000E+00  1.96428571E-01
                       2.14285714E-01  0.00000000E+00  2.14285714E-01
                       2.32142857E-01  0.00000000E+00  2.32142857E-01
                       2.50000000E-01  0.00000000E+00  2.50000000E-01
                       2.67857143E-01  0.00000000E+00  2.67857143E-01
                       2.85714286E-01  0.00000000E+00  2.85714286E-01
                       3.03571429E-01  0.00000000E+00  3.03571429E-01
                       3.21428571E-01  0.00000000E+00  3.21428571E-01
                       3.39285714E-01  0.00000000E+00  3.39285714E-01
                       3.57142857E-01  0.00000000E+00  3.57142857E-01
                       3.75000000E-01  0.00000000E+00  3.75000000E-01
                       3.92857143E-01  0.00000000E+00  3.92857143E-01
                       4.10714286E-01  0.00000000E+00  4.10714286E-01
                       4.28571429E-01  0.00000000E+00  4.28571429E-01
                       4.46428571E-01  0.00000000E+00  4.46428571E-01
                       outvar_i_n : Printing only first  50 k-points.
           kptopt1          1
           kptopt2         -3
         kptrlatt        8    0    0      0    8    0      0    0    8
          kptrlen1     6.16050717E+01
          kptrlen2     3.00000000E+01
P           mkmem1         60
P           mkmem2         63
            natom           2
            nband1         16
            nband2         16
           nbdbuf1          0
           nbdbuf2          2
           ndtset           2
           ndivsm1          0
           ndivsm2         10
            ngfft          32      32      32
             nkpt1         60
             nkpt2         63
             nsym          48
           ntypat           1
              occ      2.000000  2.000000  2.000000  2.000000  0.000000  0.000000
                       0.000000  0.000000  0.000000  0.000000  0.000000  0.000000
                       0.000000  0.000000  0.000000  0.000000
          prtkden           1
            rprim      6.6689446327E+00  0.0000000000E+00  3.8503169789E+00
                       2.2229815442E+00  6.2875412976E+00  3.8503169789E+00
                       0.0000000000E+00  0.0000000000E+00  7.7006339579E+00
           shiftk      5.00000000E-01  5.00000000E-01  5.00000000E-01
          spgroup         227
           symrel      1  0  0   0  1  0   0  0  1      -1  0  0   0 -1  0   0  0 -1
                       0 -1  1   0 -1  0   1 -1  0       0  1 -1   0  1  0  -1  1  0
                      -1  0  0  -1  0  1  -1  1  0       1  0  0   1  0 -1   1 -1  0
                       0  1 -1   1  0 -1   0  0 -1       0 -1  1  -1  0  1   0  0  1
                      -1  0  0  -1  1  0  -1  0  1       1  0  0   1 -1  0   1  0 -1
                       0 -1  1   1 -1  0   0 -1  0       0  1 -1  -1  1  0   0  1  0
                       1  0  0   0  0  1   0  1  0      -1  0  0   0  0 -1   0 -1  0
                       0  1 -1   0  0 -1   1  0 -1       0 -1  1   0  0  1  -1  0  1
                      -1  0  1  -1  1  0  -1  0  0       1  0 -1   1 -1  0   1  0  0
                       0 -1  0   1 -1  0   0 -1  1       0  1  0  -1  1  0   0  1 -1
                       1  0 -1   0  0 -1   0  1 -1      -1  0  1   0  0  1   0 -1  1
                       0  1  0   0  0  1   1  0  0       0 -1  0   0  0 -1  -1  0  0
                       1  0 -1   0  1 -1   0  0 -1      -1  0  1   0 -1  1   0  0  1
                       0 -1  0   0 -1  1   1 -1  0       0  1  0   0  1 -1  -1  1  0
                      -1  0  1  -1  0  0  -1  1  0       1  0 -1   1  0  0   1 -1  0
                       0  1  0   1  0  0   0  0  1       0 -1  0  -1  0  0   0  0 -1
                       0  0 -1   0  1 -1   1  0 -1       0  0  1   0 -1  1  -1  0  1
                       1 -1  0   0 -1  1   0 -1  0      -1  1  0   0  1 -1   0  1  0
                       0  0  1   1  0  0   0  1  0       0  0 -1  -1  0  0   0 -1  0
                      -1  1  0  -1  0  0  -1  0  1       1 -1  0   1  0  0   1  0 -1
                       0  0  1   0  1  0   1  0  0       0  0 -1   0 -1  0  -1  0  0
                       1 -1  0   0 -1  0   0 -1  1      -1  1  0   0  1  0   0  1 -1
                       0  0 -1   1  0 -1   0  1 -1       0  0  1  -1  0  1   0 -1  1
                      -1  1  0  -1  0  1  -1  0  0       1 -1  0   1  0 -1   1  0  0
            tnons      0.0000000  0.0000000  0.0000000    -0.2500000 -0.2500000 -0.2500000
                       0.0000000  0.0000000  0.0000000    -0.2500000 -0.2500000 -0.2500000
                       0.0000000  0.0000000  0.0000000    -0.2500000 -0.2500000 -0.2500000
                       0.0000000  0.0000000  0.0000000    -0.2500000 -0.2500000 -0.2500000
                       0.0000000  0.0000000  0.0000000    -0.2500000 -0.2500000 -0.2500000
                       0.0000000  0.0000000  0.0000000    -0.2500000 -0.2500000 -0.2500000
                       0.0000000  0.0000000  0.0000000    -0.2500000 -0.2500000 -0.2500000
                       0.0000000  0.0000000  0.0000000    -0.2500000 -0.2500000 -0.2500000
                       0.0000000  0.0000000  0.0000000    -0.2500000 -0.2500000 -0.2500000
                       0.0000000  0.0000000  0.0000000    -0.2500000 -0.2500000 -0.2500000
                       0.0000000  0.0000000  0.0000000    -0.2500000 -0.2500000 -0.2500000
                       0.0000000  0.0000000  0.0000000    -0.2500000 -0.2500000 -0.2500000
                       0.0000000  0.0000000  0.0000000    -0.2500000 -0.2500000 -0.2500000
                       0.0000000  0.0000000  0.0000000    -0.2500000 -0.2500000 -0.2500000
                       0.0000000  0.0000000  0.0000000    -0.2500000 -0.2500000 -0.2500000
                       0.0000000  0.0000000  0.0000000    -0.2500000 -0.2500000 -0.2500000
                       0.0000000  0.0000000  0.0000000    -0.2500000 -0.2500000 -0.2500000
                       0.0000000  0.0000000  0.0000000    -0.2500000 -0.2500000 -0.2500000
                       0.0000000  0.0000000  0.0000000    -0.2500000 -0.2500000 -0.2500000
                       0.0000000  0.0000000  0.0000000    -0.2500000 -0.2500000 -0.2500000
                       0.0000000  0.0000000  0.0000000    -0.2500000 -0.2500000 -0.2500000
                       0.0000000  0.0000000  0.0000000    -0.2500000 -0.2500000 -0.2500000
                       0.0000000  0.0000000  0.0000000    -0.2500000 -0.2500000 -0.2500000
                       0.0000000  0.0000000  0.0000000    -0.2500000 -0.2500000 -0.2500000
           toldfe1     1.00000000E-06 Hartree
           toldfe2     0.00000000E+00 Hartree
           tolwfr1     0.00000000E+00
           tolwfr2     1.00000000E-12
            typat      1  1
          usekden           1
              wtk1       0.00391    0.01172    0.01172    0.01172    0.01172    0.01172
                         0.01172    0.01172    0.01172    0.02344    0.02344    0.02344
                         0.02344    0.02344    0.02344    0.01172    0.02344    0.02344
                         0.02344    0.02344    0.02344    0.01172    0.02344    0.02344
                         0.02344    0.02344    0.01172    0.02344    0.02344    0.01172
                         0.02344    0.01172    0.00391    0.01172    0.01172    0.01172
                         0.01172    0.01172    0.01172    0.02344    0.02344    0.02344
                         0.02344    0.01172    0.02344    0.02344    0.02344    0.01172
                         0.02344    0.01172
              wtk2       1.00000    1.00000    1.00000    1.00000    1.00000    1.00000
                         1.00000    1.00000    1.00000    1.00000    1.00000    1.00000
                         1.00000    1.00000    1.00000    1.00000    1.00000    1.00000
                         1.00000    1.00000    1.00000    1.00000    1.00000    1.00000
                         1.00000    1.00000    1.00000    1.00000    1.00000    1.00000
                         1.00000    1.00000    1.00000    1.00000    1.00000    1.00000
                         1.00000    1.00000    1.00000    1.00000    1.00000    1.00000
                         1.00000    1.00000    1.00000    1.00000    1.00000    1.00000
                         1.00000    1.00000
                       outvars : Printing only first  50 k-points.
           xangst      0.0000000000E+00  0.0000000000E+00  0.0000000000E+00
                       3.5290535050E+00  2.4954176646E+00  6.1124999733E+00
            xcart      0.0000000000E+00  0.0000000000E+00  0.0000000000E+00
                       6.6689446327E+00  4.7156559732E+00  1.1550950937E+01
             xred      0.0000000000E+00  0.0000000000E+00  0.0000000000E+00
                       7.5000000000E-01  7.5000000000E-01  7.5000000000E-01
            znucl       32.00000

================================================================================

 chkinp: Checking input parameters for consistency, jdtset=   1.

 chkinp: Checking input parameters for consistency, jdtset=   2.

================================================================================
== DATASET  1 ==================================================================
-   mpi_nproc: 1, omp_nthreads: -1 (-1 if OMP is not activated)


--- !DatasetInfo
iteration_state: {dtset: 1, }
dimensions: {natom: 2, nkpt: 60, mband: 16, nsppol: 1, nspinor: 1, nspden: 1, mpw: 1394, }
cutoff_energies: {ecut:  20.0, pawecutdg:  -1.0, }
electrons: {nelect:   8.00000000E+00, charge:   0.00000000E+00, occopt:   1.00000000E+00, tsmear:   1.00000000E-02, }
meta: {optdriver: 0, ionmov: 0, optcell: 0, iscf: 7, paral_kgb: 0, }
...

 Real(R)+Recip(G) space primitive vectors, cartesian coordinates (Bohr,Bohr^-1):
 R(1)=  6.6689446  0.0000000  3.8503170  G(1)=  0.1499488 -0.0530149  0.0000000
 R(2)=  2.2229815  6.2875413  3.8503170  G(2)=  0.0000000  0.1590447  0.0000000
 R(3)=  0.0000000  0.0000000  7.7006340  G(3)= -0.0749744 -0.0530149  0.1298594
 Unit cell volume ucvol=  3.2289732E+02 bohr^3
 Angles (23,13,12)=  6.00000000E+01  6.00000000E+01  6.00000000E+01 degrees

 getcut: wavevector=  0.0000  0.0000  0.0000  ngfft=  32  32  32
         ecut(hartree)=     20.000   => boxcut(ratio)=   2.06416

--- Pseudopotential description ------------------------------------------------
- pspini: atom type   1  psp file is /home/varre/sp/32ge.4.hgh
- pspatm: opening atomic psp file    /home/varre/sp/32ge.4.hgh
- Hartwigsen-Goedecker-Hutter psp for Ge,  from PRB58, 3641 (1998)
- 32.00000   4.00000     10605                znucl, zion, pspdat
    3    1    2    0      2001   0.00000      pspcod,pspxc,lmax,lloc,mmax,r2well
 rloc=   0.5400000
 cc1 =   0.0000000; cc2 =   0.0000000; cc3 =   0.0000000; cc4 =   0.0000000
 rrs =   0.4937430; h11s=   3.8268910; h22s=   1.1002310; h33s=  -1.3442180
 rrp =   0.6010640; h11p=   1.3625180; h22p=  -0.6273700; h33p=   0.0000000
                    k11p=   0.0439810; k22p=   0.0098020; k33p=   0.0000000
 rrd =   0.7883690; h11d=   0.1912050; h22d=   0.0000000; h33d=   0.0000000
                    k11d=   0.0029180; k22d=   0.0000000; k33d=   0.0000000
-  Local part computed in reciprocal space.

 pspatm : COMMENT -
  the projectors are not normalized,
  so that the KB energies are not consistent with 
  definition in PRB44, 8503 (1991). 
  However, this does not influence the results obtained hereafter.
  pspatm : epsatm=    7.32870734
         --- l  ekb(1:nproj) -->
             0   -0.689243    0.540168    1.677848
             1   -0.368258    0.777155
             2    0.513181
 pspatm: atomic psp has been read  and splines computed

   1.17259317E+02                                ecore*ucvol(ha*bohr**3)
--------------------------------------------------------------------------------

_setup2: Arith. and geom. avg. npw (full set) are    1379.121    1379.110

================================================================================

--- !BeginCycle
iteration_state: {dtset: 1, }
solver: {iscf: 7, nstep: 30, nline: 4, wfoptalg: 0, }
tolerances: {toldfe: 1.00E-06, }
...

     iter   Etot(hartree)      deltaE(h)  residm     vres2
 ETOT  1  -6.0541720031131    -6.054E+00 2.737E-02 9.067E+01
 ETOT  2  -6.0412190957800     1.295E-02 5.205E-03 1.198E+01
 ETOT  3  -6.0297124521482     1.151E-02 6.913E-04 1.343E+00
 ETOT  4  -6.0242570040594     5.455E-03 4.316E-04 1.118E-02
 ETOT  5  -6.0249267796145    -6.698E-04 1.310E-03 5.612E-04
 ETOT  6  -6.0250555261275    -1.287E-04 1.366E-03 8.718E-06
 ETOT  7  -6.0250720467702    -1.652E-05 6.833E-04 4.388E-08
 ETOT  8  -6.0250716863819     3.604E-07 1.198E-04 2.844E-10
 ETOT  9  -6.0250716611127     2.527E-08 9.594E-05 1.325E-11

 At SCF step    9, etot is converged : 
  for the second time, diff in etot=  2.527E-08 < toldfe=  1.000E-06

Result for kinetic energy density :

--------------------------------------------------------------------------------
 Total kinetic energy density [Ha/Bohr^3]
      Maximum=    5.0985E-02  at reduced coord.    0.9375    0.9688    0.9688
      Minimum=    9.8330E-04  at reduced coord.    0.2500    0.2500    0.2500
   Integrated=    3.0187E+00
--------------------------------------------------------------------------------

 Cartesian components of stress tensor (hartree/bohr^3)
  sigma(1 1)=  6.88386449E-03  sigma(3 2)=  4.24564186E-14
  sigma(2 2)=  6.88386449E-03  sigma(3 1)=  6.00433502E-14
  sigma(3 3)=  6.88386449E-03  sigma(2 1)=  4.24575080E-14


--- !ResultsGS
iteration_state: {dtset: 1, }
comment   : Summary of ground state results
lattice_vectors:
- [  6.6689446,   0.0000000,   3.8503170, ]
- [  2.2229815,   6.2875413,   3.8503170, ]
- [  0.0000000,   0.0000000,   7.7006340, ]
lattice_lengths: [   7.70063,    7.70063,    7.70063, ]
lattice_angles: [ 60.000,  60.000,  60.000, ] # degrees, (23, 13, 12)
lattice_volume:   3.2289732E+02
convergence: {deltae:  2.527E-08, res2:  1.325E-11, residm:  9.594E-05, diffor: null, }
etotal    :  -6.02507166E+00
entropy   :   0.00000000E+00
fermie    :   1.12375046E-01
cartesian_stress_tensor: # hartree/bohr^3
- [  6.88386449E-03,   4.24575080E-14,   6.00433502E-14, ]
- [  4.24575080E-14,   6.88386449E-03,   4.24564186E-14, ]
- [  6.00433502E-14,   4.24564186E-14,   6.88386449E-03, ]
pressure_GPa:  -2.0253E+02
xred      :
- [  0.0000E+00,   0.0000E+00,   0.0000E+00, Ge]
- [  7.5000E-01,   7.5000E-01,   7.5000E-01, Ge]
cartesian_forces: # hartree/bohr
- [ -9.08457348E-29,   3.21188175E-29,   5.24498094E-29, ]
- [  9.08457348E-29,  -3.21188175E-29,  -5.24498094E-29, ]
force_length_stats: {min:   1.09706647E-28, max:   1.09706647E-28, mean:   1.09706647E-28, }
...

 Integrated electronic density in atomic spheres:
 ------------------------------------------------
 Atom  Sphere_radius  Integrated_density
    1        2.00000          1.66008994
    2        2.00000          1.66008994
================================================================================

 ----iterations are completed or convergence reached----

 Mean square residual over all n,k,spin=   18.956E-08; max=  95.940E-06
 reduced coordinates (array xred) for    2 atoms
       0.000000000000      0.000000000000      0.000000000000
       0.750000000000      0.750000000000      0.750000000000
 rms dE/dt=  3.5194E-28; max dE/dt=  4.0390E-28; dE/dt below (all hartree)
    1       0.000000000000     -0.000000000000     -0.000000000000
    2      -0.000000000000      0.000000000000      0.000000000000

 cartesian coordinates (angstrom) at end:
    1      0.00000000000000     0.00000000000000     0.00000000000000
    2      3.52905350496022     2.49541766456874     6.11249997328264

 cartesian forces (hartree/bohr) at end:
    1     -0.00000000000000     0.00000000000000     0.00000000000000
    2      0.00000000000000    -0.00000000000000    -0.00000000000000
 frms,max,avg= 6.3339162E-29 9.0845735E-29   0.000E+00  0.000E+00  0.000E+00 h/b

 cartesian forces (eV/Angstrom) at end:
    1     -0.00000000000000     0.00000000000000     0.00000000000000
    2      0.00000000000000    -0.00000000000000    -0.00000000000000
 frms,max,avg= 3.2570304E-27 4.6714751E-27   0.000E+00  0.000E+00  0.000E+00 e/A
 length scales=  1.000000000000  1.000000000000  1.000000000000 bohr
              =  0.529177208590  0.529177208590  0.529177208590 angstroms
 prteigrs : about to open file gehybo_DS1_EIG
 Fermi (or HOMO) energy (hartree) =   0.11238   Average Vxc (hartree)=  -0.31155
 Eigenvalues (hartree) for nkpt=  60  k points:
 kpt#   1, nband= 16, wtk=  0.00391, kpt=  0.0625  0.0625  0.0625 (reduced coord)
  -0.32543    0.07999    0.11238    0.11238    0.15394    0.22923    0.22923    0.23062
   0.38655    0.45598    0.45598    0.52703    0.55099    0.55099    0.66595    0.96651
 prteigrs : prtvol=0 or 1, do not print more k-points.


--- !EnergyTerms
iteration_state     : {dtset: 1, }
comment             : Components of total free energy in Hartree
kinetic             :  3.01872566397537E+00
hartree             :  6.41470745916474E-01
xc                  : -3.65834473246659E-01
Ewald energy        : -7.91423967789914E+00
psp_core            :  3.63147383567600E-01
local_psp           : -2.44028812849191E+00
non_local_psp       :  6.71946825065605E-01
total_energy        : -6.02507166111265E+00
total_energy_eV     : -1.63950537754544E+02
band_energy         : -6.12222129645645E-01
...


 Cartesian components of stress tensor (hartree/bohr^3)
  sigma(1 1)=  6.88386449E-03  sigma(3 2)=  4.24564186E-14
  sigma(2 2)=  6.88386449E-03  sigma(3 1)=  6.00433502E-14
  sigma(3 3)=  6.88386449E-03  sigma(2 1)=  4.24575080E-14

-Cartesian components of stress tensor (GPa)         [Pressure= -2.0253E+02 GPa]
- sigma(1 1)=  2.02530251E+02  sigma(3 2)=  1.24911075E-09
- sigma(2 2)=  2.02530251E+02  sigma(3 1)=  1.76653606E-09
- sigma(3 3)=  2.02530251E+02  sigma(2 1)=  1.24914280E-09

================================================================================
== DATASET  2 ==================================================================
-   mpi_nproc: 1, omp_nthreads: -1 (-1 if OMP is not activated)


--- !DatasetInfo
iteration_state: {dtset: 2, }
dimensions: {natom: 2, nkpt: 63, mband: 16, nsppol: 1, nspinor: 1, nspden: 1, mpw: 1395, }
cutoff_energies: {ecut:  20.0, pawecutdg:  -1.0, }
electrons: {nelect:   8.00000000E+00, charge:   0.00000000E+00, occopt:   1.00000000E+00, tsmear:   1.00000000E-02, }
meta: {optdriver: 0, ionmov: 0, optcell: 0, iscf: -2, paral_kgb: 0, }
...

 mkfilename : getden/=0, take file _DEN from output of DATASET   1.

 mkfilename : getkden/=0, take file _KDEN from output of DATASET   1.

 Real(R)+Recip(G) space primitive vectors, cartesian coordinates (Bohr,Bohr^-1):
 R(1)=  6.6689446  0.0000000  3.8503170  G(1)=  0.1499488 -0.0530149  0.0000000
 R(2)=  2.2229815  6.2875413  3.8503170  G(2)=  0.0000000  0.1590447  0.0000000
 R(3)=  0.0000000  0.0000000  7.7006340  G(3)= -0.0749744 -0.0530149  0.1298594
 Unit cell volume ucvol=  3.2289732E+02 bohr^3
 Angles (23,13,12)=  6.00000000E+01  6.00000000E+01  6.00000000E+01 degrees

 getcut: wavevector=  0.0000  0.0000  0.0000  ngfft=  32  32  32
         ecut(hartree)=     20.000   => boxcut(ratio)=   2.06416
--------------------------------------------------------------------------------


================================================================================
 prteigrs : about to open file gehybo_DS2_EIG
 Non-SCF case, kpt    1 ( -0.50000 -0.50000 -0.50000), residuals and eigenvalues=
  5.38E-13  3.35E-13  5.44E-13  1.65E-13  5.71E-13  5.91E-14  5.17E-13  4.61E-13
  9.89E-13  3.30E-13  5.18E-13  2.63E-13  3.39E-13  7.19E-13  7.70E-09  4.36E-06
 -2.5661E-01 -1.4315E-01  7.0159E-02  7.0159E-02  1.3995E-01  2.6872E-01
  2.6872E-01  4.0704E-01  5.1063E-01  5.2493E-01  5.3680E-01  5.3680E-01
  5.6864E-01  5.6864E-01  8.0516E-01  8.6047E-01
  prteigrs : nnsclo,ikpt=   30    1 max resid (incl. the buffer)=  4.35521E-06
 Non-SCF case, kpt    2 ( -0.47917 -0.47917 -0.47917), residuals and eigenvalues=
  1.27E-13  6.92E-13  3.47E-13  5.00E-13  2.68E-13  7.02E-13  3.64E-13  5.65E-13
  1.58E-13  2.26E-13  3.67E-13  2.81E-13  4.58E-13  1.64E-13  2.76E-08  2.86E-04
 -2.5726E-01 -1.4214E-01  7.0287E-02  7.0287E-02  1.4008E-01  2.6875E-01
  2.6875E-01  4.0716E-01  5.0067E-01  5.3090E-01  5.3090E-01  5.3474E-01
  5.7515E-01  5.7515E-01  7.9697E-01  8.7046E-01
  prteigrs : nnsclo,ikpt=   30    2 max resid (incl. the buffer)=  2.85701E-04
 Non-SCF case, kpt    3 ( -0.45833 -0.45833 -0.45833), residuals and eigenvalues=
  9.45E-14  5.18E-13  4.10E-13  3.20E-13  3.23E-13  5.01E-13  3.41E-13  3.72E-13
  2.57E-13  3.42E-13  9.14E-13  6.81E-13  6.03E-13  1.60E-13  9.27E-09  1.09E-05
 -2.5910E-01 -1.3916E-01  7.0671E-02  7.0671E-02  1.4047E-01  2.6885E-01
  2.6885E-01  4.0750E-01  4.8596E-01  5.1939E-01  5.1939E-01  5.4892E-01
  5.8851E-01  5.8851E-01  7.8031E-01  8.7622E-01
  prteigrs : nnsclo,ikpt=   30    3 max resid (incl. the buffer)=  1.08764E-05
 Non-SCF case, kpt    4 ( -0.43750 -0.43750 -0.43750), residuals and eigenvalues=
  3.68E-13  3.82E-13  5.32E-14  3.60E-13  7.60E-14  7.51E-14  7.00E-13  6.49E-13
  3.60E-13  6.75E-13  1.34E-13  2.59E-13  6.49E-14  7.94E-13  8.00E-08  4.36E-06
 -2.6196E-01 -1.3441E-01  7.1310E-02  7.1310E-02  1.4111E-01  2.6898E-01
  2.6898E-01  4.0794E-01  4.7108E-01  5.0693E-01  5.0693E-01  5.6267E-01
  6.0409E-01  6.0409E-01  7.6234E-01  8.5463E-01
  prteigrs : nnsclo,ikpt=   30    4 max resid (incl. the buffer)=  4.35729E-06
 Non-SCF case, kpt    5 ( -0.41667 -0.41667 -0.41667), residuals and eigenvalues=
  5.69E-13  5.32E-14  1.17E-13  8.13E-13  1.29E-13  1.43E-13  9.97E-13  4.12E-13
  3.44E-13  6.71E-13  3.15E-13  8.45E-13  2.07E-13  3.12E-13  1.56E-10  1.23E-10
 -2.6561E-01 -1.2812E-01  7.2200E-02  7.2200E-02  1.4201E-01  2.6912E-01
  2.6912E-01  4.0818E-01  4.5675E-01  4.9468E-01  4.9468E-01  5.7490E-01
  6.2072E-01  6.2072E-01  7.4575E-01  8.3354E-01
  prteigrs : nnsclo,ikpt=   30    5 max resid (incl. the buffer)=  1.55676E-10
 Non-SCF case, kpt    6 ( -0.39583 -0.39583 -0.39583), residuals and eigenvalues=
  5.95E-13  1.00E-13  4.78E-13  9.19E-14  2.54E-13  2.31E-13  9.64E-13  2.85E-13
  2.73E-13  7.36E-13  3.88E-13  8.70E-13  8.99E-14  7.41E-13  7.31E-11  2.87E-12
 -2.6981E-01 -1.2054E-01  7.3338E-02  7.3338E-02  1.4316E-01  2.6921E-01
  2.6921E-01  4.0745E-01  4.4386E-01  4.8306E-01  4.8306E-01  5.8435E-01
  6.3804E-01  6.3804E-01  7.3234E-01  8.1294E-01
  prteigrs : nnsclo,ikpt=   30    6 max resid (incl. the buffer)=  7.31284E-11
 Non-SCF case, kpt    7 ( -0.37500 -0.37500 -0.37500), residuals and eigenvalues=
  1.57E-13  6.99E-13  7.03E-13  3.17E-13  4.28E-13  9.64E-14  3.63E-13  2.14E-13
  9.44E-13  5.57E-13  5.70E-13  7.83E-13  9.74E-13  8.93E-13  5.45E-11  5.14E-12
 -2.7435E-01 -1.1187E-01  7.4721E-02  7.4721E-02  1.4455E-01  2.6919E-01
  2.6919E-01  4.0394E-01  4.3424E-01  4.7225E-01  4.7225E-01  5.8940E-01
  6.5586E-01  6.5586E-01  7.2397E-01  7.9289E-01
  prteigrs : nnsclo,ikpt=   30    7 max resid (incl. the buffer)=  5.44596E-11
 Non-SCF case, kpt    8 ( -0.35417 -0.35417 -0.35417), residuals and eigenvalues=
  8.00E-14  1.88E-13  8.90E-14  5.56E-13  1.48E-13  2.91E-13  3.02E-13  9.73E-14
  8.34E-13  5.68E-13  4.84E-13  2.83E-13  4.87E-13  6.06E-13  2.81E-10  6.68E-13
 -2.7906E-01 -1.0229E-01  7.6342E-02  7.6342E-02  1.4616E-01  2.6897E-01
  2.6897E-01  3.9576E-01  4.2977E-01  4.6241E-01  4.6241E-01  5.8870E-01
  6.7396E-01  6.7396E-01  7.2213E-01  7.7355E-01
  prteigrs : nnsclo,ikpt=   30    8 max resid (incl. the buffer)=  2.80806E-10
 Non-SCF case, kpt    9 ( -0.33333 -0.33333 -0.33333), residuals and eigenvalues=
  3.07E-13  2.02E-13  8.36E-13  6.27E-13  7.23E-13  2.47E-13  8.00E-13  1.18E-13
  8.54E-13  4.63E-13  8.51E-14  2.16E-13  2.53E-13  7.84E-13  2.63E-10  3.55E-13
 -2.8383E-01 -9.1942E-02  7.8192E-02  7.8192E-02  1.4799E-01  2.6848E-01
  2.6848E-01  3.8401E-01  4.2930E-01  4.5368E-01  4.5368E-01  5.8234E-01
  6.9184E-01  6.9184E-01  7.2689E-01  7.5539E-01
  prteigrs : nnsclo,ikpt=   30    9 max resid (incl. the buffer)=  2.63405E-10
 Non-SCF case, kpt   10 ( -0.31250 -0.31250 -0.31250), residuals and eigenvalues=
  4.34E-13  1.46E-13  1.68E-13  1.99E-13  1.28E-13  2.27E-13  3.67E-13  2.77E-13
  5.97E-13  3.79E-13  2.83E-13  5.11E-13  3.30E-13  2.83E-13  6.25E-06  6.78E-13
 -2.8853E-01 -8.0933E-02  8.0262E-02  8.0262E-02  1.5002E-01  2.6762E-01
  2.6762E-01  3.7073E-01  4.3071E-01  4.4616E-01  4.4616E-01  5.7185E-01
  7.0699E-01  7.0699E-01  7.3683E-01  7.4092E-01
  prteigrs : nnsclo,ikpt=   30   10 max resid (incl. the buffer)=  6.25138E-06
 Non-SCF case, kpt   11 ( -0.29167 -0.29167 -0.29167), residuals and eigenvalues=
  5.30E-13  8.73E-14  4.19E-13  3.39E-13  1.47E-13  2.71E-13  5.15E-13  3.18E-13
  8.65E-13  2.23E-13  4.47E-13  3.47E-13  8.97E-13  9.82E-13  6.35E-13  1.88E-07
 -2.9311E-01 -6.9340E-02  8.2540E-02  8.2540E-02  1.5221E-01  2.6631E-01
  2.6631E-01  3.5692E-01  4.3284E-01  4.3998E-01  4.3998E-01  5.5911E-01
  7.0706E-01  7.0706E-01  7.4246E-01  7.4246E-01
  prteigrs : nnsclo,ikpt=   30   11 max resid (incl. the buffer)=  1.87880E-07
 Non-SCF case, kpt   12 ( -0.27083 -0.27083 -0.27083), residuals and eigenvalues=
  7.46E-13  1.63E-13  2.47E-13  3.63E-13  5.39E-13  7.88E-13  1.85E-13  1.26E-13
  8.97E-13  6.00E-13  9.36E-13  4.46E-13  1.34E-13  8.70E-13  2.88E-13  4.46E-06
 -2.9750E-01 -5.7239E-02  8.5010E-02  8.5010E-02  1.5454E-01  2.6448E-01
  2.6448E-01  3.4296E-01  4.3505E-01  4.3520E-01  4.3520E-01  5.4568E-01
  6.9312E-01  6.9312E-01  7.5894E-01  7.5902E-01
  prteigrs : nnsclo,ikpt=   30   12 max resid (incl. the buffer)=  4.46254E-06
 Non-SCF case, kpt   13 ( -0.25000 -0.25000 -0.25000), residuals and eigenvalues=
  8.12E-13  4.16E-13  4.29E-13  1.68E-13  5.03E-13  6.80E-13  2.34E-13  2.24E-13
  4.70E-13  4.81E-13  3.30E-13  1.58E-13  7.80E-13  2.71E-13  4.29E-07  1.61E-12
 -3.0167E-01 -4.4688E-02  8.7651E-02  8.7651E-02  1.5695E-01  2.6210E-01
  2.6210E-01  3.2905E-01  4.3189E-01  4.3189E-01  4.3678E-01  5.3280E-01
  6.7686E-01  6.7686E-01  7.7849E-01  7.7866E-01
  prteigrs : nnsclo,ikpt=   30   13 max resid (incl. the buffer)=  4.29369E-07
 Non-SCF case, kpt   14 ( -0.22917 -0.22917 -0.22917), residuals and eigenvalues=
  8.13E-14  5.24E-13  2.09E-13  2.27E-13  2.81E-13  6.56E-13  2.55E-13  1.97E-13
  3.28E-13  1.45E-13  9.10E-13  1.05E-13  2.20E-13  4.68E-13  1.01E-07  6.28E-06
 -3.0558E-01 -3.1739E-02  9.0440E-02  9.0440E-02  1.5938E-01  2.5918E-01
  2.5918E-01  3.1528E-01  4.3005E-01  4.3005E-01  4.3732E-01  5.2162E-01
  6.6047E-01  6.6047E-01  7.7511E-01  7.9953E-01
  prteigrs : nnsclo,ikpt=   30   14 max resid (incl. the buffer)=  6.28128E-06
 Non-SCF case, kpt   15 ( -0.20833 -0.20833 -0.20833), residuals and eigenvalues=
  5.06E-13  9.48E-13  7.56E-13  5.39E-13  7.73E-14  7.24E-13  1.43E-13  8.73E-14
  2.36E-13  2.24E-13  2.41E-13  6.28E-13  4.69E-13  2.68E-13  7.08E-08  6.62E-05
 -3.0921E-01 -1.8442E-02  9.3344E-02  9.3344E-02  1.6172E-01  2.5578E-01
  2.5578E-01  3.0174E-01  4.2964E-01  4.2964E-01  4.3588E-01  5.1324E-01
  6.4439E-01  6.4439E-01  7.6030E-01  8.2132E-01
  prteigrs : nnsclo,ikpt=   30   15 max resid (incl. the buffer)=  6.61869E-05
 Non-SCF case, kpt   16 ( -0.18750 -0.18750 -0.18750), residuals and eigenvalues=
  6.81E-13  1.13E-13  3.34E-13  5.48E-13  4.18E-13  1.73E-13  1.26E-13  9.35E-13
  2.09E-13  3.45E-13  4.64E-13  1.03E-13  2.39E-13  1.77E-13  4.26E-11  3.37E-06
 -3.1254E-01 -4.8444E-03  9.6326E-02  9.6326E-02  1.6383E-01  2.5198E-01
  2.5198E-01  2.8853E-01  4.3059E-01  4.3059E-01  4.3186E-01  5.0844E-01
  6.2879E-01  6.2879E-01  7.4435E-01  8.4273E-01
  prteigrs : nnsclo,ikpt=   30   16 max resid (incl. the buffer)=  3.37059E-06
 Non-SCF case, kpt   17 ( -0.16667 -0.16667 -0.16667), residuals and eigenvalues=
  6.33E-13  1.14E-13  2.89E-13  4.53E-13  2.88E-13  1.41E-13  9.06E-14  7.02E-13
  5.56E-13  1.69E-13  2.62E-13  1.02E-13  1.81E-13  1.68E-13  1.86E-12  5.86E-08
 -3.1554E-01  9.0130E-03  9.9338E-02  9.9338E-02  1.6552E-01  2.4791E-01
  2.4791E-01  2.7580E-01  4.2541E-01  4.3278E-01  4.3278E-01  5.0724E-01
  6.1375E-01  6.1375E-01  7.2875E-01  8.6491E-01
  prteigrs : nnsclo,ikpt=   30   17 max resid (incl. the buffer)=  5.86176E-08
 Non-SCF case, kpt   18 ( -0.14583 -0.14583 -0.14583), residuals and eigenvalues=
  1.36E-13  3.23E-13  6.19E-13  1.41E-13  9.16E-14  6.48E-13  1.08E-13  9.44E-13
  1.00E-12  2.36E-13  2.38E-13  1.01E-13  8.43E-13  2.21E-13  9.36E-12  1.29E-05
 -3.1821E-01  2.3065E-02  1.0232E-01  1.0232E-01  1.6648E-01  2.4373E-01
  2.4373E-01  2.6379E-01  4.1737E-01  4.3606E-01  4.3606E-01  5.0888E-01
  5.9936E-01  5.9936E-01  7.1386E-01  8.8660E-01
  prteigrs : nnsclo,ikpt=   30   18 max resid (incl. the buffer)=  1.29489E-05
 Non-SCF case, kpt   19 ( -0.12500 -0.12500 -0.12500), residuals and eigenvalues=
  1.53E-13  8.40E-14  6.60E-13  4.37E-13  2.03E-13  8.29E-13  3.90E-13  5.91E-13
  2.52E-13  2.74E-13  1.08E-13  5.22E-13  6.07E-13  3.43E-13  3.26E-12  1.60E-05
 -3.2054E-01  3.7274E-02  1.0521E-01  1.0521E-01  1.6631E-01  2.3961E-01
  2.3961E-01  2.5284E-01  4.0876E-01  4.4027E-01  4.4027E-01  5.1243E-01
  5.8572E-01  5.8572E-01  6.9990E-01  9.0988E-01
  prteigrs : nnsclo,ikpt=   30   19 max resid (incl. the buffer)=  1.59612E-05
 Non-SCF case, kpt   20 ( -0.10417 -0.10417 -0.10417), residuals and eigenvalues=
  8.96E-14  3.12E-13  2.04E-13  2.67E-13  4.58E-13  4.15E-13  3.63E-13  4.81E-13
  4.81E-13  4.37E-13  3.12E-13  1.67E-13  4.18E-13  5.20E-13  1.08E-11  8.02E-05
 -3.2253E-01  5.1555E-02  1.0791E-01  1.0791E-01  1.6446E-01  2.3570E-01
  2.3570E-01  2.4340E-01  4.0038E-01  4.4519E-01  4.4519E-01  5.1706E-01
  5.7295E-01  5.7295E-01  6.8707E-01  9.2805E-01
  prteigrs : nnsclo,ikpt=   30   20 max resid (incl. the buffer)=  8.01961E-05
 Non-SCF case, kpt   21 ( -0.08333 -0.08333 -0.08333), residuals and eigenvalues=
  9.81E-13  3.21E-13  2.57E-13  2.88E-13  3.79E-13  4.87E-14  2.81E-13  2.17E-13
  4.22E-13  5.68E-13  5.54E-13  7.40E-13  3.86E-13  8.03E-13  2.84E-12  1.62E-04
 -3.2416E-01  6.5835E-02  1.1033E-01  1.1033E-01  1.6043E-01  2.3218E-01
  2.3218E-01  2.3592E-01  3.9284E-01  4.5056E-01  4.5056E-01  5.2213E-01
  5.6127E-01  5.6127E-01  6.7564E-01  9.4958E-01
  prteigrs : nnsclo,ikpt=   30   21 max resid (incl. the buffer)=  1.62416E-04
 Non-SCF case, kpt   22 ( -0.06250 -0.06250 -0.06250), residuals and eigenvalues=
  1.23E-13  6.24E-13  1.39E-13  8.77E-13  7.52E-13  6.92E-13  6.49E-13  5.05E-13
  5.31E-13  4.92E-14  8.08E-14  5.98E-13  9.11E-13  2.76E-13  2.84E-13  1.98E-04
 -3.2543E-01  7.9990E-02  1.1238E-01  1.1238E-01  1.5394E-01  2.2923E-01
  2.2923E-01  2.3062E-01  3.8655E-01  4.5598E-01  4.5598E-01  5.2703E-01
  5.5099E-01  5.5099E-01  6.6595E-01  9.6804E-01
  prteigrs : nnsclo,ikpt=   30   22 max resid (incl. the buffer)=  1.97743E-04
 Non-SCF case, kpt   23 ( -0.04167 -0.04167 -0.04167), residuals and eigenvalues=
  1.27E-13  8.60E-13  2.05E-13  1.00E-13  1.84E-13  5.60E-13  8.48E-14  6.54E-13
  8.64E-13  9.09E-13  3.11E-13  4.42E-13  5.89E-13  2.33E-13  1.56E-13  1.96E-04
 -3.2634E-01  9.3828E-02  1.1393E-01  1.1393E-01  1.4522E-01  2.2699E-01
  2.2699E-01  2.2734E-01  3.8184E-01  4.6088E-01  4.6088E-01  5.3119E-01
  5.4265E-01  5.4265E-01  6.5846E-01  9.8788E-01
  prteigrs : nnsclo,ikpt=   30   23 max resid (incl. the buffer)=  1.95927E-04
 Non-SCF case, kpt   24 ( -0.02083 -0.02083 -0.02083), residuals and eigenvalues=
  1.30E-13  9.20E-14  2.89E-13  8.05E-14  2.28E-13  3.91E-13  7.65E-14  3.59E-13
  9.27E-13  1.34E-13  2.96E-13  2.67E-13  2.67E-13  2.63E-13  1.11E-13  8.56E-05
 -3.2689E-01  1.0687E-01  1.1490E-01  1.1490E-01  1.3504E-01  2.2559E-01
  2.2559E-01  2.2563E-01  3.7892E-01  4.6445E-01  4.6445E-01  5.3401E-01
  5.3703E-01  5.3703E-01  6.5367E-01  1.0062E+00
  prteigrs : nnsclo,ikpt=   30   24 max resid (incl. the buffer)=  8.56111E-05
 Non-SCF case, kpt   25 (  0.00000  0.00000  0.00000), residuals and eigenvalues=
  2.55E-13  8.47E-14  8.17E-13  5.19E-14  1.81E-13  1.93E-13  7.34E-14  1.19E-13
  1.34E-13  2.23E-13  2.66E-13  3.67E-13  6.32E-13  2.75E-13  1.68E-13  2.06E-04
 -3.2708E-01  1.1523E-01  1.1523E-01  1.1523E-01  1.2759E-01  2.2511E-01
  2.2511E-01  2.2511E-01  3.7793E-01  4.6579E-01  4.6579E-01  5.3501E-01
  5.3501E-01  5.3501E-01  6.5201E-01  1.0163E+00
  prteigrs : nnsclo,ikpt=   30   25 max resid (incl. the buffer)=  2.06491E-04
 Non-SCF case, kpt   26 (  0.01786  0.00000  0.01786), residuals and eigenvalues=
  7.70E-13  6.33E-13  5.08E-13  8.20E-14  4.56E-14  2.14E-13  1.68E-13  2.57E-13
  2.57E-13  5.85E-13  1.74E-13  3.84E-13  3.27E-13  3.43E-13  5.63E-13  8.63E-05
 -3.2689E-01  1.0755E-01  1.1449E-01  1.1449E-01  1.3523E-01  2.2456E-01
  2.2610E-01  2.2610E-01  3.7890E-01  4.6300E-01  4.6599E-01  5.3539E-01
  5.3539E-01  5.3719E-01  6.5365E-01  1.0072E+00
  prteigrs : nnsclo,ikpt=   30   26 max resid (incl. the buffer)=  8.63299E-05
 Non-SCF case, kpt   27 (  0.03571  0.00000  0.03571), residuals and eigenvalues=
  1.09E-13  9.50E-13  4.77E-13  5.57E-13  5.53E-13  2.67E-13  5.46E-13  2.65E-13
  3.72E-13  7.24E-13  6.10E-13  1.84E-13  3.71E-13  6.22E-13  1.63E-13  8.36E-05
 -3.2635E-01  9.5840E-02  1.1234E-01  1.1234E-01  1.4680E-01  2.2295E-01
  2.2898E-01  2.2898E-01  3.8176E-01  4.5567E-01  4.6658E-01  5.3651E-01
  5.3651E-01  5.4272E-01  6.5854E-01  9.9022E-01
  prteigrs : nnsclo,ikpt=   30   27 max resid (incl. the buffer)=  8.36247E-05
 Non-SCF case, kpt   28 (  0.05357  0.00000  0.05357), residuals and eigenvalues=
  9.89E-14  1.20E-13  8.61E-14  5.31E-14  3.24E-13  8.08E-13  3.33E-13  3.71E-13
  3.49E-13  4.32E-13  3.32E-13  5.38E-13  2.95E-13  3.91E-13  2.70E-13  3.51E-05
 -3.2546E-01  8.3695E-02  1.0900E-01  1.0900E-01  1.5868E-01  2.2041E-01
  2.3354E-01  2.3354E-01  3.8638E-01  4.4569E-01  4.6757E-01  5.3838E-01
  5.3838E-01  5.4982E-01  6.6662E-01  9.7092E-01
  prteigrs : nnsclo,ikpt=   30   28 max resid (incl. the buffer)=  3.51250E-05
 Non-SCF case, kpt   29 (  0.07143  0.00000  0.07143), residuals and eigenvalues=
  2.71E-13  1.24E-13  2.08E-13  2.69E-13  2.68E-13  3.45E-13  9.58E-14  4.96E-13
  3.33E-13  1.82E-13  2.61E-13  4.66E-13  6.82E-13  1.37E-13  9.00E-13  3.63E-05
 -3.2421E-01  7.1462E-02  1.0474E-01  1.0474E-01  1.7046E-01  2.1711E-01
  2.3951E-01  2.3951E-01  3.9259E-01  4.3450E-01  4.6896E-01  5.4100E-01
  5.4100E-01  5.5727E-01  6.7769E-01  9.5102E-01
  prteigrs : nnsclo,ikpt=   30   29 max resid (incl. the buffer)=  3.63390E-05
 Non-SCF case, kpt   30 (  0.08929  0.00000  0.08929), residuals and eigenvalues=
  2.58E-13  1.84E-13  2.08E-13  4.44E-13  4.09E-13  4.56E-13  7.99E-14  5.91E-13
  4.53E-13  2.37E-13  3.28E-13  7.01E-13  9.25E-13  3.81E-13  4.35E-12  2.38E-05
 -3.2260E-01  5.9231E-02  9.9808E-02  9.9808E-02  1.8195E-01  2.1324E-01
  2.4661E-01  2.4661E-01  4.0020E-01  4.2303E-01  4.7074E-01  5.4438E-01
  5.4438E-01  5.6456E-01  6.9147E-01  9.3089E-01
  prteigrs : nnsclo,ikpt=   30   30 max resid (incl. the buffer)=  2.38460E-05
 Non-SCF case, kpt   31 (  0.10714  0.00000  0.10714), residuals and eigenvalues=
  1.71E-13  3.68E-13  7.12E-13  3.43E-13  4.57E-14  9.01E-13  1.12E-13  1.07E-13
  8.11E-14  6.51E-13  9.03E-13  4.18E-13  2.39E-13  3.59E-13  1.04E-11  2.20E-06
 -3.2064E-01  4.7039E-02  9.4445E-02  9.4445E-02  1.9298E-01  2.0897E-01
  2.5463E-01  2.5463E-01  4.0900E-01  4.1186E-01  4.7291E-01  5.4851E-01
  5.4851E-01  5.7159E-01  7.0758E-01  9.1078E-01
  prteigrs : nnsclo,ikpt=   30   31 max resid (incl. the buffer)=  2.20119E-06
 Non-SCF case, kpt   32 (  0.12500  0.00000  0.12500), residuals and eigenvalues=
  1.39E-13  4.97E-13  5.09E-13  4.50E-13  5.73E-14  1.20E-13  5.80E-14  2.43E-13
  9.71E-13  1.59E-13  8.20E-13  4.97E-13  6.92E-13  3.91E-13  6.32E-11  3.45E-06
 -3.1833E-01  3.4899E-02  8.8829E-02  8.8829E-02  2.0335E-01  2.0446E-01
  2.6337E-01  2.6337E-01  4.0147E-01  4.1884E-01  4.7549E-01  5.5339E-01
  5.5339E-01  5.7844E-01  7.2564E-01  8.9084E-01
  prteigrs : nnsclo,ikpt=   30   32 max resid (incl. the buffer)=  3.44737E-06
 Non-SCF case, kpt   33 (  0.14286  0.00000  0.14286), residuals and eigenvalues=
  2.67E-13  1.11E-13  1.98E-13  5.19E-13  4.92E-13  1.75E-13  4.64E-13  4.22E-13
  5.02E-13  3.08E-13  2.72E-13  2.00E-13  2.54E-13  2.04E-13  1.74E-09  1.88E-06
 -3.1566E-01  2.2840E-02  8.3101E-02  8.3101E-02  1.9986E-01  2.1278E-01
  2.7269E-01  2.7269E-01  3.9231E-01  4.2955E-01  4.7846E-01  5.5904E-01
  5.5904E-01  5.8527E-01  7.4532E-01  8.7111E-01
  prteigrs : nnsclo,ikpt=   30   33 max resid (incl. the buffer)=  1.88319E-06
 Non-SCF case, kpt   34 (  0.16071  0.00000  0.16071), residuals and eigenvalues=
  3.09E-13  1.80E-13  7.46E-13  7.35E-13  1.65E-13  4.28E-13  3.14E-13  3.31E-13
  2.41E-13  7.29E-13  1.94E-13  2.09E-13  7.61E-14  5.45E-13  1.46E-07  3.86E-06
 -3.1264E-01  1.0844E-02  7.7362E-02  7.7362E-02  1.9526E-01  2.2094E-01
  2.8247E-01  2.8247E-01  3.8481E-01  4.4101E-01  4.8182E-01  5.6545E-01
  5.6545E-01  5.9221E-01  7.6633E-01  8.5163E-01
  prteigrs : nnsclo,ikpt=   30   34 max resid (incl. the buffer)=  3.86414E-06
 Non-SCF case, kpt   35 (  0.17857  0.00000  0.17857), residuals and eigenvalues=
  3.14E-13  7.35E-13  1.13E-13  9.04E-13  9.65E-14  6.60E-14  1.17E-13  1.52E-13
  2.66E-13  8.73E-13  9.80E-14  3.31E-13  6.92E-13  3.59E-13  3.11E-07  6.31E-09
 -3.0927E-01 -1.0597E-03  7.1696E-02  7.1696E-02  1.9076E-01  2.2743E-01
  2.9264E-01  2.9264E-01  3.7943E-01  4.5310E-01  4.8558E-01  5.7262E-01
  5.7262E-01  5.9942E-01  7.8844E-01  8.3245E-01
  prteigrs : nnsclo,ikpt=   30   35 max resid (incl. the buffer)=  3.11077E-07
 Non-SCF case, kpt   36 (  0.19643  0.00000  0.19643), residuals and eigenvalues=
  2.33E-13  6.38E-13  1.09E-13  6.72E-14  4.50E-13  7.98E-14  5.62E-13  4.46E-13
  1.93E-13  8.36E-13  1.14E-13  5.49E-13  9.62E-13  8.09E-13  3.33E-06  5.06E-09
 -3.0556E-01 -1.2881E-02  6.6161E-02  6.6161E-02  1.8642E-01  2.3189E-01
  3.0311E-01  3.0311E-01  3.7659E-01  4.6570E-01  4.8974E-01  5.8054E-01
  5.8054E-01  6.0698E-01  8.1167E-01  8.1357E-01
  prteigrs : nnsclo,ikpt=   30   36 max resid (incl. the buffer)=  3.33149E-06
 Non-SCF case, kpt   37 (  0.21429  0.00000  0.21429), residuals and eigenvalues=
  3.32E-13  7.77E-14  2.10E-13  1.28E-13  1.09E-13  1.26E-13  4.07E-13  1.33E-13
  5.10E-13  7.03E-13  1.03E-13  5.13E-13  2.91E-13  3.78E-13  2.45E-07  2.91E-06
 -3.0150E-01 -2.4607E-02  6.0805E-02  6.0805E-02  1.8231E-01  2.3408E-01
  3.1384E-01  3.1384E-01  3.7655E-01  4.7871E-01  4.9430E-01  5.8923E-01
  5.8923E-01  6.1498E-01  7.9502E-01  7.9503E-01
  prteigrs : nnsclo,ikpt=   30   37 max resid (incl. the buffer)=  2.91078E-06
 Non-SCF case, kpt   38 (  0.23214  0.00000  0.23214), residuals and eigenvalues=
  2.85E-13  1.19E-13  9.59E-14  5.09E-14  1.78E-13  1.13E-13  6.85E-13  2.21E-13
  1.14E-13  4.33E-13  2.44E-13  3.95E-13  3.81E-13  4.92E-13  5.32E-08  4.87E-07
 -2.9710E-01 -3.6231E-02  5.5667E-02  5.5667E-02  1.7845E-01  2.3403E-01
  3.2477E-01  3.2477E-01  3.7931E-01  4.9201E-01  4.9925E-01  5.9867E-01
  5.9867E-01  6.2348E-01  7.7682E-01  7.7682E-01
  prteigrs : nnsclo,ikpt=   30   38 max resid (incl. the buffer)=  4.86891E-07
 Non-SCF case, kpt   39 (  0.25000  0.00000  0.25000), residuals and eigenvalues=
  1.14E-13  7.86E-14  3.23E-13  3.29E-13  6.68E-13  5.53E-13  1.52E-13  5.07E-14
  1.00E-13  6.45E-13  5.48E-13  1.48E-13  5.18E-13  6.65E-13  8.18E-08  8.72E-08
 -2.9236E-01 -4.7735E-02  5.0776E-02  5.0776E-02  1.7490E-01  2.3200E-01
  3.3589E-01  3.3589E-01  3.8461E-01  5.0460E-01  5.0546E-01  6.0885E-01
  6.0885E-01  6.3254E-01  7.5899E-01  7.5899E-01
  prteigrs : nnsclo,ikpt=   30   39 max resid (incl. the buffer)=  8.72404E-08
 Non-SCF case, kpt   40 (  0.26786  0.00000  0.26786), residuals and eigenvalues=
  5.02E-13  1.83E-13  6.37E-13  2.41E-13  5.44E-14  2.84E-13  4.78E-13  4.15E-13
  4.70E-13  7.19E-13  9.29E-13  2.67E-13  8.08E-13  7.31E-13  2.56E-10  1.92E-08
 -2.8730E-01 -5.9140E-02  4.6152E-02  4.6152E-02  1.7168E-01  2.2843E-01
  3.4714E-01  3.4714E-01  3.9200E-01  5.1035E-01  5.1889E-01  6.1975E-01
  6.1975E-01  6.4219E-01  7.4155E-01  7.4155E-01
  prteigrs : nnsclo,ikpt=   30   40 max resid (incl. the buffer)=  1.91901E-08
 Non-SCF case, kpt   41 (  0.28571  0.00000  0.28571), residuals and eigenvalues=
  4.16E-13  2.31E-13  1.82E-13  2.18E-13  3.60E-13  4.04E-13  3.27E-13  8.50E-13
  4.37E-13  8.80E-13  3.56E-13  4.32E-13  5.55E-13  1.60E-13  6.44E-10  1.11E-08
 -2.8190E-01 -7.0424E-02  4.1817E-02  4.1817E-02  1.6882E-01  2.2379E-01
  3.5850E-01  3.5850E-01  4.0103E-01  5.1649E-01  5.3209E-01  6.3132E-01
  6.3132E-01  6.5247E-01  7.2457E-01  7.2457E-01
  prteigrs : nnsclo,ikpt=   30   41 max resid (incl. the buffer)=  1.11298E-08
 Non-SCF case, kpt   42 (  0.30357  0.00000  0.30357), residuals and eigenvalues=
  4.01E-13  2.10E-13  4.02E-13  1.45E-13  2.75E-13  1.08E-13  3.96E-13  1.43E-13
  6.04E-13  2.21E-13  2.67E-13  2.92E-13  7.74E-13  7.79E-13  7.78E-10  4.52E-09
 -2.7617E-01 -8.1576E-02  3.7785E-02  3.7785E-02  1.6632E-01  2.1848E-01
  3.6994E-01  3.6994E-01  4.1126E-01  5.2303E-01  5.4477E-01  6.4347E-01
  6.4347E-01  6.6340E-01  7.0815E-01  7.0815E-01
  prteigrs : nnsclo,ikpt=   30   42 max resid (incl. the buffer)=  4.51773E-09
 Non-SCF case, kpt   43 (  0.32143  0.00000  0.32143), residuals and eigenvalues=
  6.04E-14  4.09E-13  2.57E-13  2.77E-13  3.64E-13  1.13E-13  7.84E-13  4.01E-13
  6.19E-13  2.74E-13  2.13E-13  8.08E-13  8.24E-13  9.35E-13  6.67E-12  1.20E-10
 -2.7013E-01 -9.2601E-02  3.4070E-02  3.4070E-02  1.6423E-01  2.1282E-01
  3.8142E-01  3.8142E-01  4.2237E-01  5.2997E-01  5.5655E-01  6.5575E-01
  6.5575E-01  6.7500E-01  6.9275E-01  6.9275E-01
  prteigrs : nnsclo,ikpt=   30   43 max resid (incl. the buffer)=  1.19753E-10
 Non-SCF case, kpt   44 (  0.33929  0.00000  0.33929), residuals and eigenvalues=
  5.19E-13  5.03E-13  5.34E-13  5.99E-13  4.04E-13  1.51E-13  7.43E-13  3.22E-13
  6.73E-13  1.25E-13  7.58E-13  7.34E-13  1.72E-13  2.03E-13  8.65E-13  7.80E-13
 -2.6377E-01 -1.0348E-01  3.0683E-02  3.0683E-02  1.6254E-01  2.0705E-01
  3.9291E-01  3.9291E-01  4.3410E-01  5.3730E-01  5.6692E-01  6.6456E-01
  6.6456E-01  6.8201E-01  6.8201E-01  6.8730E-01
 Non-SCF case, kpt   45 (  0.35714  0.00000  0.35714), residuals and eigenvalues=
  7.62E-14  5.60E-13  3.92E-13  3.71E-13  1.38E-13  1.43E-13  2.82E-13  4.26E-13
  2.84E-13  2.15E-13  4.07E-13  4.07E-13  6.76E-13  9.22E-13  1.05E-09  3.23E-09
 -2.5710E-01 -1.1420E-01  2.7632E-02  2.7632E-02  1.6127E-01  2.0134E-01
  4.0435E-01  4.0435E-01  4.4627E-01  5.4504E-01  5.7529E-01  6.5684E-01
  6.5684E-01  6.8901E-01  6.8901E-01  7.0030E-01
  prteigrs : nnsclo,ikpt=   30   45 max resid (incl. the buffer)=  3.23123E-09
 Non-SCF case, kpt   46 (  0.37500  0.00000  0.37500), residuals and eigenvalues=
  5.78E-14  2.52E-13  7.87E-13  4.75E-13  1.39E-13  3.25E-13  4.82E-13  4.10E-13
  4.30E-13  2.93E-13  4.18E-13  7.07E-13  4.19E-13  4.87E-13  8.75E-06  6.04E-05
 -2.5012E-01 -1.2476E-01  2.4925E-02  2.4925E-02  1.6042E-01  1.9581E-01
  4.1567E-01  4.1567E-01  4.5871E-01  5.5317E-01  5.8101E-01  6.4326E-01
  6.4326E-01  7.0315E-01  7.0319E-01  7.1020E-01
  prteigrs : nnsclo,ikpt=   30   46 max resid (incl. the buffer)=  6.03736E-05
 Non-SCF case, kpt   47 (  0.39286  0.00000  0.39286), residuals and eigenvalues=
  4.00E-13  1.96E-13  1.76E-13  1.79E-13  4.37E-14  6.47E-14  9.03E-13  3.86E-13
  2.70E-13  7.25E-14  5.51E-13  7.11E-13  7.89E-13  6.19E-13  9.52E-13  9.02E-08
 -2.4284E-01 -1.3516E-01  2.2568E-02  2.2568E-02  1.6002E-01  1.9055E-01
  4.2676E-01  4.2676E-01  4.7130E-01  5.6170E-01  5.8360E-01  6.2956E-01
  6.2956E-01  6.9511E-01  7.1877E-01  7.1877E-01
  prteigrs : nnsclo,ikpt=   30   47 max resid (incl. the buffer)=  9.02330E-08
 Non-SCF case, kpt   48 (  0.41071  0.00000  0.41071), residuals and eigenvalues=
  4.11E-13  1.62E-13  1.79E-13  1.52E-13  4.85E-14  5.19E-14  7.31E-13  2.60E-13
  3.61E-13  9.56E-13  3.60E-13  4.00E-13  3.89E-13  8.48E-13  7.86E-11  5.25E-06
 -2.3527E-01 -1.4537E-01  2.0566E-02  2.0566E-02  1.6007E-01  1.8562E-01
  4.3746E-01  4.3746E-01  4.8396E-01  5.7062E-01  5.8292E-01  6.1649E-01
  6.1649E-01  6.8180E-01  7.3527E-01  7.3533E-01
  prteigrs : nnsclo,ikpt=   30   48 max resid (incl. the buffer)=  5.25173E-06
 Non-SCF case, kpt   49 (  0.42857  0.00000  0.42857), residuals and eigenvalues=
  5.73E-13  3.99E-13  8.06E-13  7.11E-13  4.75E-13  6.74E-13  8.06E-13  6.21E-13
  5.73E-13  4.46E-13  9.70E-13  8.06E-13  8.97E-13  1.09E-13  7.73E-08  1.12E-05
 -2.2743E-01 -1.5539E-01  1.8921E-02  1.8921E-02  1.6056E-01  1.8107E-01
  4.4752E-01  4.4752E-01  4.9658E-01  5.7922E-01  5.7995E-01  6.0445E-01
  6.0445E-01  6.6889E-01  7.5250E-01  7.5268E-01
  prteigrs : nnsclo,ikpt=   30   49 max resid (incl. the buffer)=  1.12115E-05
 Non-SCF case, kpt   50 (  0.44643  0.00000  0.44643), residuals and eigenvalues=
  1.47E-13  3.30E-13  3.28E-13  9.86E-13  1.61E-13  4.05E-13  4.45E-13  1.87E-13
  6.42E-13  4.21E-13  6.47E-13  7.95E-13  4.84E-13  4.08E-13  8.42E-07  6.55E-05
 -2.1930E-01 -1.6520E-01  1.7640E-02  1.7640E-02  1.6152E-01  1.7693E-01
  4.5654E-01  4.5654E-01  5.0907E-01  5.7300E-01  5.8967E-01  5.9386E-01
  5.9386E-01  6.5638E-01  7.7041E-01  7.7144E-01
  prteigrs : nnsclo,ikpt=   30   50 max resid (incl. the buffer)=  6.55132E-05
 Non-SCF case, kpt   51 (  0.46429  0.00000  0.46429), residuals and eigenvalues=
  9.29E-13  2.25E-13  2.55E-13  7.91E-13  1.73E-13  2.72E-13  3.47E-13  1.17E-13
  8.08E-13  1.96E-13  7.76E-13  6.20E-13  8.75E-13  5.15E-13  1.46E-05  9.77E-05
 -2.1090E-01 -1.7480E-01  1.6723E-02  1.6723E-02  1.6294E-01  1.7323E-01
  4.6393E-01  4.6393E-01  5.2132E-01  5.6484E-01  5.8534E-01  5.8534E-01
  5.9979E-01  6.4427E-01  7.8897E-01  7.9039E-01
  prteigrs : nnsclo,ikpt=   30   51 max resid (incl. the buffer)=  9.77460E-05
 Non-SCF case, kpt   52 (  0.48214  0.00000  0.48214), residuals and eigenvalues=
  3.71E-14  1.05E-13  1.11E-13  1.62E-13  6.04E-14  4.34E-13  3.20E-13  1.71E-13
  4.36E-13  3.73E-13  1.55E-13  1.25E-13  5.57E-13  3.43E-13  1.53E-05  1.91E-05
 -2.0224E-01 -1.8418E-01  1.6173E-02  1.6173E-02  1.6482E-01  1.6997E-01
  4.6890E-01  4.6890E-01  5.3322E-01  5.5524E-01  5.7969E-01  5.7969E-01
  6.1031E-01  6.3255E-01  8.0819E-01  8.0889E-01
  prteigrs : nnsclo,ikpt=   30   52 max resid (incl. the buffer)=  1.91002E-05
 Non-SCF case, kpt   53 (  0.50000  0.00000  0.50000), residuals and eigenvalues=
  4.38E-13  8.00E-14  1.49E-13  7.32E-13  2.10E-13  5.55E-13  8.73E-14  1.26E-13
  9.56E-13  3.27E-13  4.76E-13  6.39E-13  2.25E-13  9.60E-13  7.59E-06  3.99E-05
 -1.9333E-01 -1.9333E-01  1.5989E-02  1.5989E-02  1.6716E-01  1.6716E-01
  4.7068E-01  4.7068E-01  5.4460E-01  5.4460E-01  5.7769E-01  5.7769E-01
  6.2123E-01  6.2123E-01  8.2616E-01  8.2806E-01
  prteigrs : nnsclo,ikpt=   30   53 max resid (incl. the buffer)=  3.99218E-05
 Non-SCF case, kpt   54 (  0.51250  0.02500  0.51250), residuals and eigenvalues=
  8.72E-14  2.00E-13  3.32E-13  2.06E-13  4.80E-13  1.45E-13  2.30E-13  4.06E-13
  1.01E-13  3.08E-13  8.18E-13  1.64E-13  6.72E-13  5.61E-13  5.72E-05  1.29E-04
 -1.9347E-01 -1.9312E-01  1.5071E-02  1.6139E-02  1.6731E-01  1.6881E-01
  4.6883E-01  4.6943E-01  5.3846E-01  5.4645E-01  5.7414E-01  5.8405E-01
  6.2257E-01  6.2488E-01  8.1309E-01  8.1600E-01
  prteigrs : nnsclo,ikpt=   30   54 max resid (incl. the buffer)=  1.28802E-04
 Non-SCF case, kpt   55 (  0.52500  0.05000  0.52500), residuals and eigenvalues=
  1.19E-13  1.72E-13  3.15E-13  3.93E-13  3.39E-13  1.10E-13  3.52E-13  2.64E-13
  5.33E-13  2.14E-13  5.19E-13  1.59E-13  4.11E-13  3.83E-13  1.77E-06  7.57E-06
 -1.9391E-01 -1.9250E-01  1.2460E-02  1.6589E-02  1.6774E-01  1.7360E-01
  4.6378E-01  4.6584E-01  5.2616E-01  5.5150E-01  5.6575E-01  5.9699E-01
  6.2644E-01  6.3355E-01  7.9765E-01  8.0226E-01
  prteigrs : nnsclo,ikpt=   30   55 max resid (incl. the buffer)=  7.57206E-06
 Non-SCF case, kpt   56 (  0.53750  0.07500  0.53750), residuals and eigenvalues=
  2.07E-13  7.77E-14  2.60E-13  1.18E-13  2.87E-13  1.83E-13  9.61E-13  6.20E-13
  1.54E-13  2.58E-13  2.63E-13  4.07E-13  5.47E-13  3.91E-13  5.90E-07  9.93E-07
 -1.9464E-01 -1.9146E-01  8.5168E-03  1.7337E-02  1.6845E-01  1.8119E-01
  4.5654E-01  4.6025E-01  5.1240E-01  5.5536E-01  5.5871E-01  6.1173E-01
  6.3248E-01  6.4438E-01  7.8342E-01  7.8853E-01
  prteigrs : nnsclo,ikpt=   30   56 max resid (incl. the buffer)=  9.92803E-07
 Non-SCF case, kpt   57 (  0.55000  0.10000  0.55000), residuals and eigenvalues=
  4.85E-14  1.02E-13  4.21E-14  5.42E-13  4.99E-13  1.74E-13  1.10E-13  1.37E-13
  5.95E-13  3.45E-13  2.07E-13  6.79E-13  8.06E-13  3.73E-13  8.38E-09  3.88E-08
 -1.9571E-01 -1.9000E-01  3.7050E-03  1.8380E-02  1.6944E-01  1.9113E-01
  4.4800E-01  4.5309E-01  4.9837E-01  5.4426E-01  5.6719E-01  6.2696E-01
  6.4023E-01  6.5605E-01  7.6988E-01  7.7503E-01
  prteigrs : nnsclo,ikpt=   30   57 max resid (incl. the buffer)=  3.87502E-08
 Non-SCF case, kpt   58 (  0.56250  0.12500  0.56250), residuals and eigenvalues=
  1.43E-13  1.73E-13  1.41E-13  9.11E-13  8.77E-13  1.72E-13  1.61E-13  8.20E-13
  1.90E-13  7.77E-13  8.53E-13  2.94E-13  3.30E-13  5.64E-13  3.04E-09  1.61E-09
 -1.9712E-01 -1.8812E-01 -1.5251E-03  1.9714E-02  1.7070E-01  2.0300E-01
  4.3874E-01  4.4479E-01  4.8441E-01  5.3298E-01  5.7629E-01  6.4206E-01
  6.4923E-01  6.6799E-01  7.5732E-01  7.6192E-01
  prteigrs : nnsclo,ikpt=   30   58 max resid (incl. the buffer)=  3.03701E-09
 Non-SCF case, kpt   59 (  0.57500  0.15000  0.57500), residuals and eigenvalues=
  9.98E-13  1.17E-13  7.39E-13  5.54E-13  5.98E-13  1.12E-13  3.62E-13  6.41E-13
  7.84E-14  3.77E-13  1.51E-13  6.26E-13  6.20E-13  2.91E-13  1.38E-12  8.18E-12
 -1.9892E-01 -1.8583E-01 -6.7912E-03  2.1334E-02  1.7223E-01  2.1644E-01
  4.2914E-01  4.3570E-01  4.7068E-01  5.2176E-01  5.8558E-01  6.5629E-01
  6.5910E-01  6.7990E-01  7.4630E-01  7.4929E-01
  prteigrs : nnsclo,ikpt=   30   59 max resid (incl. the buffer)=  8.18235E-12
 Non-SCF case, kpt   60 (  0.58750  0.17500  0.58750), residuals and eigenvalues=
  1.43E-13  3.05E-13  6.49E-13  9.13E-14  4.54E-13  2.84E-13  5.14E-13  3.23E-13
  1.59E-13  4.10E-13  9.28E-13  2.03E-13  5.24E-13  3.72E-13  9.11E-13  9.69E-13
 -2.0114E-01 -1.8312E-01 -1.1788E-02  2.3232E-02  1.7400E-01  2.3114E-01
  4.1943E-01  4.2608E-01  4.5724E-01  5.1074E-01  5.9473E-01  6.6828E-01
  6.6953E-01  6.9161E-01  7.3727E-01  7.3807E-01
 Non-SCF case, kpt   61 (  0.60000  0.20000  0.60000), residuals and eigenvalues=
  4.41E-13  5.38E-13  6.94E-13  1.02E-13  9.74E-14  5.76E-13  2.76E-13  5.39E-13
  1.02E-13  1.60E-13  3.01E-13  3.36E-13  4.44E-13  3.50E-13  7.74E-13  4.07E-13
 -2.0380E-01 -1.8000E-01 -1.6284E-02  2.5401E-02  1.7601E-01  2.4688E-01
  4.0976E-01  4.1616E-01  4.4413E-01  4.9999E-01  6.0344E-01  6.7548E-01
  6.8028E-01  7.0301E-01  7.2599E-01  7.3507E-01
 Non-SCF case, kpt   62 (  0.61250  0.22500  0.61250), residuals and eigenvalues=
  3.11E-13  1.22E-13  2.10E-13  1.99E-13  5.57E-13  6.39E-13  1.71E-13  6.28E-14
  2.25E-13  2.80E-13  8.68E-13  3.82E-13  2.46E-13  9.59E-13  8.99E-13  8.35E-13
 -2.0691E-01 -1.7645E-01 -2.0107E-02  2.7831E-02  1.7823E-01  2.6348E-01
  4.0026E-01  4.0607E-01  4.3142E-01  4.8957E-01  6.1135E-01  6.7560E-01
  6.9117E-01  7.1400E-01  7.1569E-01  7.3942E-01
 Non-SCF case, kpt   63 (  0.62500  0.25000  0.62500), residuals and eigenvalues=
  1.38E-13  1.42E-13  2.06E-13  1.89E-13  1.43E-13  2.34E-13  8.61E-14  4.58E-13
  1.13E-13  5.45E-13  1.61E-13  1.73E-13  7.63E-13  3.78E-13  1.51E-12  4.79E-12
 -2.1049E-01 -1.7250E-01 -2.3146E-02  3.0509E-02  1.8063E-01  2.8075E-01
  3.9099E-01  3.9594E-01  4.1915E-01  4.7954E-01  6.1799E-01  6.7004E-01
  7.0206E-01  7.0668E-01  7.2458E-01  7.4949E-01
  prteigrs : nnsclo,ikpt=   30   63 max resid (incl. the buffer)=  4.79004E-12


Result for kinetic energy density :

--------------------------------------------------------------------------------
 Total kinetic energy density [Ha/Bohr^3]
      Maximum=    5.0985E-02  at reduced coord.    0.9375    0.9688    0.9688
      Minimum=    9.8330E-04  at reduced coord.    0.2500    0.2500    0.2500
   Integrated=    3.0187E+00
--------------------------------------------------------------------------------

--- !ResultsGS
iteration_state: {dtset: 2, }
comment   : Summary of ground state results
lattice_vectors:
- [  6.6689446,   0.0000000,   3.8503170, ]
- [  2.2229815,   6.2875413,   3.8503170, ]
- [  0.0000000,   0.0000000,   7.7006340, ]
lattice_lengths: [   7.70063,    7.70063,    7.70063, ]
lattice_angles: [ 60.000,  60.000,  60.000, ] # degrees, (23, 13, 12)
lattice_volume:   3.2289732E+02
convergence: {deltae:  0.000E+00, res2:  0.000E+00, residm:  9.999E-13, diffor:  0.000E+00, }
etotal    :  -6.02507166E+00
entropy   :   0.00000000E+00
fermie    :   1.12375046E-01
cartesian_stress_tensor: null
pressure_GPa: null
xred      :
- [  0.0000E+00,   0.0000E+00,   0.0000E+00, Ge]
- [  7.5000E-01,   7.5000E-01,   7.5000E-01, Ge]
cartesian_forces: null
force_length_stats: {min: null, max: null, mean: null, }
...

 Integrated electronic density in atomic spheres:
 ------------------------------------------------
 Atom  Sphere_radius  Integrated_density
    1        2.00000          1.66008994
    2        2.00000          1.66008994
================================================================================

 ----iterations are completed or convergence reached----

 Mean square residual over all n,k,spin=   38.938E-14; max=  99.994E-14
 reduced coordinates (array xred) for    2 atoms
       0.000000000000      0.000000000000      0.000000000000
       0.750000000000      0.750000000000      0.750000000000

 cartesian coordinates (angstrom) at end:
    1      0.00000000000000     0.00000000000000     0.00000000000000
    2      3.52905350496022     2.49541766456874     6.11249997328264
 length scales=  1.000000000000  1.000000000000  1.000000000000 bohr
              =  0.529177208590  0.529177208590  0.529177208590 angstroms
 prteigrs : about to open file gehybo_DS2_EIG
 Eigenvalues (   eV  ) for nkpt=  63  k points:
 kpt#   1, nband= 16, wtk=  1.00000, kpt= -0.5000 -0.5000 -0.5000 (reduced coord)
  -6.98284   -3.89536    1.90912    1.90912    3.80821    7.31214    7.31214   11.07601
  13.89494   14.28418   14.60695   14.60695   15.47337   15.47337   21.90951   23.41469
 kpt#   2, nband= 16, wtk=  1.00000, kpt= -0.4792 -0.4792 -0.4792 (reduced coord)
  -7.00034   -3.86779    1.91260    1.91260    3.81170    7.31306    7.31306   11.07939
  13.62391   14.44655   14.44655   14.55091   15.65055   15.65055   21.68663   23.68654
 kpt#   3, nband= 16, wtk=  1.00000, kpt= -0.4583 -0.4583 -0.4583 (reduced coord)
  -7.05045   -3.78683    1.92305    1.92305    3.82228    7.31565    7.31565   11.08865
  13.22370   14.13330   14.13330   14.93680   16.01430   16.01430   21.23330   23.84309
 kpt#   4, nband= 16, wtk=  1.00000, kpt= -0.4375 -0.4375 -0.4375 (reduced coord)
  -7.12836   -3.65746    1.94044    1.94044    3.83993    7.31932    7.31932   11.10062
  12.81882   13.79414   13.79414   15.31114   16.43812   16.43812   20.74438   23.25577
 kpt#   5, nband= 16, wtk=  1.00000, kpt= -0.4167 -0.4167 -0.4167 (reduced coord)
  -7.22771   -3.48635    1.96465    1.96465    3.86429    7.32308    7.32308   11.10711
  12.42890   13.46103   13.46103   15.64384   16.89067   16.89067   20.29284   22.68189
 kpt#   6, nband= 16, wtk=  1.00000, kpt= -0.3958 -0.3958 -0.3958 (reduced coord)
  -7.34192   -3.28000    1.99563    1.99563    3.89547    7.32554    7.32554   11.08721
  12.07797   13.14466   13.14466   15.90092   17.36199   17.36199   19.92788   22.12113
 kpt#   7, nband= 16, wtk=  1.00000, kpt= -0.3750 -0.3750 -0.3750 (reduced coord)
  -7.46536   -3.04410    2.03327    2.03327    3.93328    7.32494    7.32494   10.99176
  11.81621   12.85061   12.85061   16.03828   17.84680   17.84680   19.70017   21.57553
 kpt#   8, nband= 16, wtk=  1.00000, kpt= -0.3542 -0.3542 -0.3542 (reduced coord)
  -7.59372   -2.78352    2.07737    2.07737    3.97725    7.31911    7.31911   10.76907
  11.69458   12.58292   12.58292   16.01947   18.33938   18.33938   19.65028   21.04927
 kpt#   9, nband= 16, wtk=  1.00000, kpt= -0.3333 -0.3333 -0.3333 (reduced coord)
  -7.72330   -2.50187    2.12771    2.12771    4.02708    7.30570    7.30570   10.44936
  11.68194   12.34520   12.34520   15.84640   18.82596   18.82596   19.77964   20.55530
 kpt#  10, nband= 16, wtk=  1.00000, kpt= -0.3125 -0.3125 -0.3125 (reduced coord)
  -7.85129   -2.20230    2.18403    2.18403    4.08220    7.28226    7.28226   10.08802
  11.72018   12.14070   12.14070   15.56086   19.23813   19.23813   20.05027   20.16149
 kpt#  11, nband= 16, wtk=  1.00000, kpt= -0.2917 -0.2917 -0.2917 (reduced coord)
  -7.97589   -1.88684    2.24602    2.24602    4.14197    7.24653    7.24653    9.71219
  11.77815   11.97235   11.97235   15.21412   19.24009   19.24009   20.20334   20.20345
 kpt#  12, nband= 16, wtk=  1.00000, kpt= -0.2708 -0.2708 -0.2708 (reduced coord)
  -8.09552   -1.55754    2.31323    2.31323    4.20533    7.19677    7.19677    9.33253
  11.83839   11.84243   11.84243   14.84866   18.86085   18.86085   20.65167   20.65405
 kpt#  13, nband= 16, wtk=  1.00000, kpt= -0.2500 -0.2500 -0.2500 (reduced coord)
  -8.20893   -1.21601    2.38511    2.38511    4.27096    7.13209    7.13209    8.95392
  11.75229   11.75229   11.88537   14.49833   18.41840   18.41840   21.18379   21.18842
 kpt#  14, nband= 16, wtk=  1.00000, kpt= -0.2292 -0.2292 -0.2292 (reduced coord)
  -8.31536   -0.86366    2.46099    2.46099    4.33696    7.05270    7.05270    8.57917
  11.70219   11.70219   11.90018   14.19405   17.97237   17.97237   21.09183   21.75625
 kpt#  15, nband= 16, wtk=  1.00000, kpt= -0.2083 -0.2083 -0.2083 (reduced coord)
  -8.41409   -0.50182    2.54002    2.54002    4.40060    6.96004    6.96004    8.21065
  11.69113   11.69113   11.86083   13.96593   17.53487   17.53487   20.68877   22.34915
 kpt#  16, nband= 16, wtk=  1.00000, kpt= -0.1875 -0.1875 -0.1875 (reduced coord)
  -8.50452   -0.13182    2.62115    2.62115    4.45815    6.85669    6.85669    7.85120
  11.71694   11.71694   11.75145   13.83541   17.11025   17.11025   20.25474   22.93195
 kpt#  17, nband= 16, wtk=  1.00000, kpt= -0.1667 -0.1667 -0.1667 (reduced coord)
  -8.58627    0.24526    2.70314    2.70314    4.50408    6.74609    6.74609    7.50493
  11.57595   11.77651   11.77651   13.80263   16.70104   16.70104   19.83024   23.53539
 kpt#  18, nband= 16, wtk=  1.00000, kpt= -0.1458 -0.1458 -0.1458 (reduced coord)
  -8.65899    0.62764    2.78435    2.78435    4.53029    6.63236    6.63236    7.17812
  11.35726   11.86590   11.86590   13.84741   16.30950   16.30950   19.42515   24.12570
 kpt#  19, nband= 16, wtk=  1.00000, kpt= -0.1250 -0.1250 -0.1250 (reduced coord)
  -8.72241    1.01428    2.86288    2.86288    4.52551    6.51999    6.51999    6.88011
  11.12279   11.98041   11.98041   13.94395   15.93823   15.93823   19.04521   24.75907
 kpt#  20, nband= 16, wtk=  1.00000, kpt= -0.1042 -0.1042 -0.1042 (reduced coord)
  -8.77638    1.40287    2.93642    2.93642    4.47527    6.41363    6.41363    6.62318
  10.89488   12.11432   12.11432   14.07005   15.59087   15.59087   18.69611   25.25344
 kpt#  21, nband= 16, wtk=  1.00000, kpt= -0.0833 -0.0833 -0.0833 (reduced coord)
  -8.82075    1.79145    3.00236    3.00236    4.36545    6.31798    6.31798    6.41965
  10.68961   12.26024   12.26024   14.20786   15.27293   15.27293   18.38503   25.83948
 kpt#  22, nband= 16, wtk=  1.00000, kpt= -0.0625 -0.0625 -0.0625 (reduced coord)
  -8.85535    2.17663    3.05788    3.05788    4.18900    6.23761    6.23761    6.27554
  10.51862   12.40773   12.40773   14.34134   14.99329   14.99329   18.12146   26.34181
 kpt#  23, nband= 16, wtk=  1.00000, kpt= -0.0417 -0.0417 -0.0417 (reduced coord)
  -8.88013    2.55318    3.10014    3.10014    3.95161    6.17667    6.17667    6.18615
  10.39037   12.54120   12.54120   14.45444   14.76628   14.76628   17.91757   26.88161
 kpt#  24, nband= 16, wtk=  1.00000, kpt= -0.0208 -0.0208 -0.0208 (reduced coord)
  -8.89503    2.90795    3.12665    3.12665    3.67472    6.13857    6.13857    6.13973
  10.31094   12.63841   12.63841   14.53114   14.61330   14.61330   17.78716   27.37899
 kpt#  25, nband= 16, wtk=  1.00000, kpt=  0.0000  0.0000  0.0000 (reduced coord)
  -8.90037    3.13569    3.13569    3.13569    3.47187    6.12553    6.12553    6.12553
  10.28390   12.67475   12.67475   14.55843   14.55843   14.55843   17.74208   27.65500
 kpt#  26, nband= 16, wtk=  1.00000, kpt=  0.0179  0.0000  0.0179 (reduced coord)
  -8.89525    2.92671    3.11548    3.11548    3.67971    6.11063    6.15242    6.15242
  10.31034   12.59888   12.68014   14.56861   14.56861   14.61771   17.78664   27.40823
 kpt#  27, nband= 16, wtk=  1.00000, kpt=  0.0357  0.0000  0.0357 (reduced coord)
  -8.88053    2.60795    3.05706    3.05706    3.99476    6.06691    6.23080    6.23080
  10.38818   12.39940   12.69629   14.59914   14.59914   14.76816   17.91984   26.94533
 kpt#  28, nband= 16, wtk=  1.00000, kpt=  0.0536  0.0000  0.0536 (reduced coord)
  -8.85620    2.27745    2.96613    2.96613    4.31804    5.99779    6.35487    6.35487
  10.51400   12.12781   12.72322   14.65007   14.65007   14.96124   18.13961   26.42019
 kpt#  29, nband= 16, wtk=  1.00000, kpt=  0.0714  0.0000  0.0714 (reduced coord)
  -8.82219    1.94459    2.85001    2.85001    4.63842    5.90793    6.51728    6.51728
  10.68301   11.82347   12.76092   14.72143   14.72143   15.16412   18.44099   25.87854
 kpt#  30, nband= 16, wtk=  1.00000, kpt=  0.0893  0.0000  0.0893 (reduced coord)
  -8.77846    1.61174    2.71591    2.71591    4.95114    5.80248    6.71073    6.71073
  10.88994   11.51112   12.80940   14.81327   14.81327   15.36259   18.81590   25.33077
 kpt#  31, nband= 16, wtk=  1.00000, kpt=  0.1071  0.0000  0.1071 (reduced coord)
  -8.72514    1.28000    2.56998    2.56998    5.25133    5.68632    6.92890    6.92890
  11.12953   11.20722   12.86864   14.92564   14.92564   15.55382   19.25426   24.78351
 kpt#  32, nband= 16, wtk=  1.00000, kpt=  0.1250  0.0000  0.1250 (reduced coord)
  -8.66211    0.94965    2.41717    2.41717    5.53347    5.56377    7.16674    7.16674
  10.92463   11.39718   12.93867   15.05862   15.05862   15.74022   19.74576   24.24091
 kpt#  33, nband= 16, wtk=  1.00000, kpt=  0.1429  0.0000  0.1429 (reduced coord)
  -8.58945    0.62151    2.26129    2.26129    5.43852    5.79012    7.42029    7.42029
  10.67522   11.68873   13.01948   15.21227   15.21227   15.92591   20.28117   23.70398
 kpt#  34, nband= 16, wtk=  1.00000, kpt=  0.1607  0.0000  0.1607 (reduced coord)
  -8.50734    0.29508    2.10512    2.10512    5.31342    6.01197    7.68651    7.68651
  10.47110   12.00054   13.11106   15.38661   15.38661   16.11499   20.85282   23.17415
 kpt#  35, nband= 16, wtk=  1.00000, kpt=  0.1786  0.0000  0.1786 (reduced coord)
  -8.41570   -0.02884    1.95093    1.95093    5.19090    6.18861    7.96303    7.96303
  10.32478   12.32944   13.21344   15.58166   15.58166   16.31098   21.45459   22.65205
 kpt#  36, nband= 16, wtk=  1.00000, kpt=  0.1964  0.0000  0.1964 (reduced coord)
  -8.31464   -0.35051    1.80032    1.80032    5.07285    6.30992    8.24799    8.24799
  10.24754   12.67239   13.32660   15.79741   15.79741   16.51669   22.08677   22.13840
 kpt#  37, nband= 16, wtk=  1.00000, kpt=  0.2143  0.0000  0.2143 (reduced coord)
  -8.20423   -0.66958    1.65460    1.65460    4.96080    6.36963    8.53990    8.53990
  10.24648   13.02639   13.45056   16.03378   16.03378   16.73436   21.63368   21.63374
 kpt#  38, nband= 16, wtk=  1.00000, kpt=  0.2321  0.0000  0.2321 (reduced coord)
  -8.08454   -0.98589    1.51477    1.51477    4.85595    6.36815    8.83754    8.83754
  10.32166   13.38823   13.58531   16.29059   16.29059   16.96572   21.13837   21.13838
 kpt#  39, nband= 16, wtk=  1.00000, kpt=  0.2500  0.0000  0.2500 (reduced coord)
  -7.95562   -1.29894    1.38169    1.38169    4.75934    6.31302    9.13993    9.13993
  10.46580   13.73086   13.75419   16.56757   16.56757   17.21217   20.65310   20.65310
 kpt#  40, nband= 16, wtk=  1.00000, kpt=  0.2679  0.0000  0.2679 (reduced coord)
  -7.81783   -1.60928    1.25587    1.25587    4.67169    6.21592    9.44609    9.44609
  10.66692   13.88721   14.11961   16.86412   16.86412   17.47479   20.17864   20.17864
 kpt#  41, nband= 16, wtk=  1.00000, kpt=  0.2857  0.0000  0.2857 (reduced coord)
  -7.67090   -1.91634    1.13789    1.13789    4.59370    6.08966    9.75522    9.75522
  10.91245   14.05438   14.47884   17.17912   17.17912   17.75448   19.71643   19.71643
 kpt#  42, nband= 16, wtk=  1.00000, kpt=  0.3036  0.0000  0.3036 (reduced coord)
  -7.51510   -2.21981    1.02819    1.02819    4.52593    5.94521   10.06648   10.06648
  11.19098   14.23235   14.82395   17.50960   17.50960   18.05196   19.26977   19.26977
 kpt#  43, nband= 16, wtk=  1.00000, kpt=  0.3214  0.0000  0.3214 (reduced coord)
  -7.35069   -2.51979    0.92709    0.92709    4.46884    5.79108   10.37895   10.37895
  11.49319   14.42114   15.14442   17.84392   17.84392   18.36778   18.85071   18.85071
 kpt#  44, nband= 16, wtk=  1.00000, kpt=  0.3393  0.0000  0.3393 (reduced coord)
  -7.17755   -2.81581    0.83492    0.83492    4.42282    5.63405   10.69157   10.69157
  11.81253   14.62075   15.42675   18.08358   18.08358   18.55840   18.55840   18.70237
 kpt#  45, nband= 16, wtk=  1.00000, kpt=  0.3571  0.0000  0.3571 (reduced coord)
  -6.99593   -3.10756    0.75191    0.75191    4.38826    5.47864   11.00290   11.00290
  12.14352   14.83118   15.65436   17.87356   17.87356   18.74889   18.74889   19.05602
 kpt#  46, nband= 16, wtk=  1.00000, kpt=  0.3750  0.0000  0.3750 (reduced coord)
  -6.80605   -3.39502    0.67824    0.67824    4.36534    5.32820   11.31095   11.31095
  12.48207   15.05244   15.80998   17.50400   17.50400   19.13358   19.13488   19.32539
 kpt#  47, nband= 16, wtk=  1.00000, kpt=  0.3929  0.0000  0.3929 (reduced coord)
  -6.60797   -3.67779    0.61411    0.61411    4.35446    5.18504   11.61278   11.61278
  12.82478   15.28452   15.88060   17.13116   17.13116   18.91488   19.55871   19.55874
 kpt#  48, nband= 16, wtk=  1.00000, kpt=  0.4107  0.0000  0.4107 (reduced coord)
  -6.40204   -3.95564    0.55962    0.55962    4.35564    5.05102   11.90401   11.90401
  13.16918   15.52745   15.86213   16.77563   16.77563   18.55277   20.00771   20.00933
 kpt#  49, nband= 16, wtk=  1.00000, kpt=  0.4286  0.0000  0.4286 (reduced coord)
  -6.18856   -4.22830    0.51487    0.51487    4.36915    4.92725   12.17768   12.17768
  13.51254   15.76134   15.78120   16.44783   16.44783   18.20147   20.47662   20.48150
 kpt#  50, nband= 16, wtk=  1.00000, kpt=  0.4464  0.0000  0.4464 (reduced coord)
  -5.96738   -4.49533    0.48002    0.48002    4.39517    4.81463   12.42312   12.42312
  13.85239   15.59215   16.04580   16.15971   16.15971   17.86101   20.96387   20.99188
 kpt#  51, nband= 16, wtk=  1.00000, kpt=  0.4643  0.0000  0.4643 (reduced coord)
  -5.73889   -4.75668    0.45506    0.45506    4.43371    4.71377   12.62420   12.62420
  14.18596   15.36999   15.92790   15.92790   16.32124   17.53138   21.46897   21.50749
 kpt#  52, nband= 16, wtk=  1.00000, kpt=  0.4821  0.0000  0.4821 (reduced coord)
  -5.50325   -5.01187    0.44008    0.44008    4.48496    4.62505   12.75952   12.75952
  14.50978   15.10890   15.77407   15.77407   16.60751   17.21258   21.99210   22.01091
 kpt#  53, nband= 16, wtk=  1.00000, kpt=  0.5000  0.0000  0.5000 (reduced coord)
  -5.26085   -5.26085    0.43508    0.43508    4.54873    4.54873   12.80778   12.80778
  14.81941   14.81941   15.71963   15.71963   16.90463   16.90463   22.48094   22.53268
 kpt#  54, nband= 16, wtk=  1.00000, kpt=  0.5125  0.0250  0.5125 (reduced coord)
  -5.26471   -5.25517    0.41012    0.43917    4.55264    4.59345   12.75754   12.77394
  14.65223   14.86968   15.62309   15.89275   16.94102   17.00379   22.12539   22.20462
 kpt#  55, nband= 16, wtk=  1.00000, kpt=  0.5250  0.0500  0.5250 (reduced coord)
  -5.27647   -5.23818    0.33904    0.45141    4.56434    4.72390   12.62020   12.67615
  14.31746   15.00698   15.39486   16.24481   17.04636   17.23968   21.70528   21.83060
 kpt#  56, nband= 16, wtk=  1.00000, kpt=  0.5375  0.0750  0.5375 (reduced coord)
  -5.29653   -5.20984    0.23175    0.47176    4.58373    4.93042   12.42320   12.52391
  13.94314   15.11216   15.20337   16.64596   17.21071   17.53448   21.31787   21.45710
 kpt#  57, nband= 16, wtk=  1.00000, kpt=  0.5500  0.1000  0.5500 (reduced coord)
  -5.32548   -5.17017    0.10082    0.50014    4.61071    5.20102   12.19067   12.32914
  13.56132   14.81017   15.43404   17.06048   17.42151   17.85207   20.94958   21.08972
 kpt#  58, nband= 16, wtk=  1.00000, kpt=  0.5625  0.1250  0.5625 (reduced coord)
  -5.36395   -5.11906   -0.04150    0.53645    4.64508    5.52402   11.93884   12.10328
  13.18157   14.50320   15.68168   17.47125   17.66650   18.17693   20.60785   20.73277
 kpt#  59, nband= 16, wtk=  1.00000, kpt=  0.5750  0.1500  0.5750 (reduced coord)
  -5.41289   -5.05668   -0.18480    0.58052    4.68657    5.88955   11.67755   11.85588
  12.80779   14.19789   15.93454   17.85850   17.93514   18.50112   20.30792   20.38920
 kpt#  60, nband= 16, wtk=  1.00000, kpt=  0.5875  0.1750  0.5875 (reduced coord)
  -5.47326   -4.98303   -0.32078    0.63217    4.73484    6.28961   11.41329   11.59434
[...]
                      -6.25000000E-02  1.87500000E-01  6.25000000E-02
                       3.12500000E-01  3.12500000E-01  6.25000000E-02
                       4.37500000E-01  3.12500000E-01  6.25000000E-02
                      -4.37500000E-01  3.12500000E-01  6.25000000E-02
                      -3.12500000E-01  3.12500000E-01  6.25000000E-02
                      -1.87500000E-01  3.12500000E-01  6.25000000E-02
                      -6.25000000E-02  3.12500000E-01  6.25000000E-02
                       4.37500000E-01  4.37500000E-01  6.25000000E-02
                      -4.37500000E-01  4.37500000E-01  6.25000000E-02
                      -3.12500000E-01  4.37500000E-01  6.25000000E-02
                      -1.87500000E-01  4.37500000E-01  6.25000000E-02
                      -6.25000000E-02  4.37500000E-01  6.25000000E-02
                      -4.37500000E-01 -4.37500000E-01  6.25000000E-02
                      -3.12500000E-01 -4.37500000E-01  6.25000000E-02
                      -1.87500000E-01 -4.37500000E-01  6.25000000E-02
                      -3.12500000E-01 -3.12500000E-01  6.25000000E-02
                      -1.87500000E-01 -3.12500000E-01  6.25000000E-02
                      -1.87500000E-01 -1.87500000E-01  6.25000000E-02
                       1.87500000E-01  1.87500000E-01  1.87500000E-01
                       3.12500000E-01  1.87500000E-01  1.87500000E-01
                       4.37500000E-01  1.87500000E-01  1.87500000E-01
                      -4.37500000E-01  1.87500000E-01  1.87500000E-01
                      -3.12500000E-01  1.87500000E-01  1.87500000E-01
                      -1.87500000E-01  1.87500000E-01  1.87500000E-01
                       3.12500000E-01  3.12500000E-01  1.87500000E-01
                       4.37500000E-01  3.12500000E-01  1.87500000E-01
                      -4.37500000E-01  3.12500000E-01  1.87500000E-01
                      -3.12500000E-01  3.12500000E-01  1.87500000E-01
                      -1.87500000E-01  3.12500000E-01  1.87500000E-01
                       4.37500000E-01  4.37500000E-01  1.87500000E-01
                      -4.37500000E-01  4.37500000E-01  1.87500000E-01
                      -3.12500000E-01  4.37500000E-01  1.87500000E-01
                      -1.87500000E-01  4.37500000E-01  1.87500000E-01
                      -4.37500000E-01 -4.37500000E-01  1.87500000E-01
                      -3.12500000E-01 -4.37500000E-01  1.87500000E-01
                      -3.12500000E-01 -3.12500000E-01  1.87500000E-01
              kpt2    -5.00000000E-01 -5.00000000E-01 -5.00000000E-01
                      -4.79166667E-01 -4.79166667E-01 -4.79166667E-01
                      -4.58333333E-01 -4.58333333E-01 -4.58333333E-01
                      -4.37500000E-01 -4.37500000E-01 -4.37500000E-01
                      -4.16666667E-01 -4.16666667E-01 -4.16666667E-01
                      -3.95833333E-01 -3.95833333E-01 -3.95833333E-01
                      -3.75000000E-01 -3.75000000E-01 -3.75000000E-01
                      -3.54166667E-01 -3.54166667E-01 -3.54166667E-01
                      -3.33333333E-01 -3.33333333E-01 -3.33333333E-01
                      -3.12500000E-01 -3.12500000E-01 -3.12500000E-01
                      -2.91666667E-01 -2.91666667E-01 -2.91666667E-01
                      -2.70833333E-01 -2.70833333E-01 -2.70833333E-01
                      -2.50000000E-01 -2.50000000E-01 -2.50000000E-01
                      -2.29166667E-01 -2.29166667E-01 -2.29166667E-01
                      -2.08333333E-01 -2.08333333E-01 -2.08333333E-01
                      -1.87500000E-01 -1.87500000E-01 -1.87500000E-01
                      -1.66666667E-01 -1.66666667E-01 -1.66666667E-01
                      -1.45833333E-01 -1.45833333E-01 -1.45833333E-01
                      -1.25000000E-01 -1.25000000E-01 -1.25000000E-01
                      -1.04166667E-01 -1.04166667E-01 -1.04166667E-01
                      -8.33333333E-02 -8.33333333E-02 -8.33333333E-02
                      -6.25000000E-02 -6.25000000E-02 -6.25000000E-02
                      -4.16666667E-02 -4.16666667E-02 -4.16666667E-02
                      -2.08333333E-02 -2.08333333E-02 -2.08333333E-02
                       0.00000000E+00  0.00000000E+00  0.00000000E+00
                       1.78571429E-02  0.00000000E+00  1.78571429E-02
                       3.57142857E-02  0.00000000E+00  3.57142857E-02
                       5.35714286E-02  0.00000000E+00  5.35714286E-02
                       7.14285714E-02  0.00000000E+00  7.14285714E-02
                       8.92857143E-02  0.00000000E+00  8.92857143E-02
                       1.07142857E-01  0.00000000E+00  1.07142857E-01
                       1.25000000E-01  0.00000000E+00  1.25000000E-01
                       1.42857143E-01  0.00000000E+00  1.42857143E-01
                       1.60714286E-01  0.00000000E+00  1.60714286E-01
                       1.78571429E-01  0.00000000E+00  1.78571429E-01
                       1.96428571E-01  0.00000000E+00  1.96428571E-01
                       2.14285714E-01  0.00000000E+00  2.14285714E-01
                       2.32142857E-01  0.00000000E+00  2.32142857E-01
                       2.50000000E-01  0.00000000E+00  2.50000000E-01
                       2.67857143E-01  0.00000000E+00  2.67857143E-01
                       2.85714286E-01  0.00000000E+00  2.85714286E-01
                       3.03571429E-01  0.00000000E+00  3.03571429E-01
                       3.21428571E-01  0.00000000E+00  3.21428571E-01
                       3.39285714E-01  0.00000000E+00  3.39285714E-01
                       3.57142857E-01  0.00000000E+00  3.57142857E-01
                       3.75000000E-01  0.00000000E+00  3.75000000E-01
                       3.92857143E-01  0.00000000E+00  3.92857143E-01
                       4.10714286E-01  0.00000000E+00  4.10714286E-01
                       4.28571429E-01  0.00000000E+00  4.28571429E-01
                       4.46428571E-01  0.00000000E+00  4.46428571E-01
                       outvar_i_n : Printing only first  50 k-points.
           kptopt1          1
           kptopt2         -3
         kptrlatt        8    0    0      0    8    0      0    0    8
          kptrlen1     6.16050717E+01
          kptrlen2     3.00000000E+01
P           mkmem1         60
P           mkmem2         63
            natom           2
            nband1         16
            nband2         16
           nbdbuf1          0
           nbdbuf2          2
           ndtset           2
           ndivsm1          0
           ndivsm2         10
            ngfft          32      32      32
             nkpt1         60
             nkpt2         63
             nsym          48
           ntypat           1
              occ      2.000000  2.000000  2.000000  2.000000  0.000000  0.000000
                       0.000000  0.000000  0.000000  0.000000  0.000000  0.000000
                       0.000000  0.000000  0.000000  0.000000
          prtkden           1
            rprim      6.6689446327E+00  0.0000000000E+00  3.8503169789E+00
                       2.2229815442E+00  6.2875412976E+00  3.8503169789E+00
                       0.0000000000E+00  0.0000000000E+00  7.7006339579E+00
           shiftk      5.00000000E-01  5.00000000E-01  5.00000000E-01
          spgroup         227
           strten1     6.8838644890E-03  6.8838644888E-03  6.8838644888E-03
                       4.2456418576E-14  6.0043350249E-14  4.2457507974E-14
           symrel      1  0  0   0  1  0   0  0  1      -1  0  0   0 -1  0   0  0 -1
                       0 -1  1   0 -1  0   1 -1  0       0  1 -1   0  1  0  -1  1  0
                      -1  0  0  -1  0  1  -1  1  0       1  0  0   1  0 -1   1 -1  0
                       0  1 -1   1  0 -1   0  0 -1       0 -1  1  -1  0  1   0  0  1
                      -1  0  0  -1  1  0  -1  0  1       1  0  0   1 -1  0   1  0 -1
                       0 -1  1   1 -1  0   0 -1  0       0  1 -1  -1  1  0   0  1  0
                       1  0  0   0  0  1   0  1  0      -1  0  0   0  0 -1   0 -1  0
                       0  1 -1   0  0 -1   1  0 -1       0 -1  1   0  0  1  -1  0  1
                      -1  0  1  -1  1  0  -1  0  0       1  0 -1   1 -1  0   1  0  0
                       0 -1  0   1 -1  0   0 -1  1       0  1  0  -1  1  0   0  1 -1
                       1  0 -1   0  0 -1   0  1 -1      -1  0  1   0  0  1   0 -1  1
                       0  1  0   0  0  1   1  0  0       0 -1  0   0  0 -1  -1  0  0
                       1  0 -1   0  1 -1   0  0 -1      -1  0  1   0 -1  1   0  0  1
                       0 -1  0   0 -1  1   1 -1  0       0  1  0   0  1 -1  -1  1  0
                      -1  0  1  -1  0  0  -1  1  0       1  0 -1   1  0  0   1 -1  0
                       0  1  0   1  0  0   0  0  1       0 -1  0  -1  0  0   0  0 -1
                       0  0 -1   0  1 -1   1  0 -1       0  0  1   0 -1  1  -1  0  1
                       1 -1  0   0 -1  1   0 -1  0      -1  1  0   0  1 -1   0  1  0
                       0  0  1   1  0  0   0  1  0       0  0 -1  -1  0  0   0 -1  0
                      -1  1  0  -1  0  0  -1  0  1       1 -1  0   1  0  0   1  0 -1
                       0  0  1   0  1  0   1  0  0       0  0 -1   0 -1  0  -1  0  0
                       1 -1  0   0 -1  0   0 -1  1      -1  1  0   0  1  0   0  1 -1
                       0  0 -1   1  0 -1   0  1 -1       0  0  1  -1  0  1   0 -1  1
                      -1  1  0  -1  0  1  -1  0  0       1 -1  0   1  0 -1   1  0  0
            tnons      0.0000000  0.0000000  0.0000000    -0.2500000 -0.2500000 -0.2500000
                       0.0000000  0.0000000  0.0000000    -0.2500000 -0.2500000 -0.2500000
                       0.0000000  0.0000000  0.0000000    -0.2500000 -0.2500000 -0.2500000
                       0.0000000  0.0000000  0.0000000    -0.2500000 -0.2500000 -0.2500000
                       0.0000000  0.0000000  0.0000000    -0.2500000 -0.2500000 -0.2500000
                       0.0000000  0.0000000  0.0000000    -0.2500000 -0.2500000 -0.2500000
                       0.0000000  0.0000000  0.0000000    -0.2500000 -0.2500000 -0.2500000
                       0.0000000  0.0000000  0.0000000    -0.2500000 -0.2500000 -0.2500000
                       0.0000000  0.0000000  0.0000000    -0.2500000 -0.2500000 -0.2500000
                       0.0000000  0.0000000  0.0000000    -0.2500000 -0.2500000 -0.2500000
                       0.0000000  0.0000000  0.0000000    -0.2500000 -0.2500000 -0.2500000
                       0.0000000  0.0000000  0.0000000    -0.2500000 -0.2500000 -0.2500000
                       0.0000000  0.0000000  0.0000000    -0.2500000 -0.2500000 -0.2500000
                       0.0000000  0.0000000  0.0000000    -0.2500000 -0.2500000 -0.2500000
                       0.0000000  0.0000000  0.0000000    -0.2500000 -0.2500000 -0.2500000
                       0.0000000  0.0000000  0.0000000    -0.2500000 -0.2500000 -0.2500000
                       0.0000000  0.0000000  0.0000000    -0.2500000 -0.2500000 -0.2500000
                       0.0000000  0.0000000  0.0000000    -0.2500000 -0.2500000 -0.2500000
                       0.0000000  0.0000000  0.0000000    -0.2500000 -0.2500000 -0.2500000
                       0.0000000  0.0000000  0.0000000    -0.2500000 -0.2500000 -0.2500000
                       0.0000000  0.0000000  0.0000000    -0.2500000 -0.2500000 -0.2500000
                       0.0000000  0.0000000  0.0000000    -0.2500000 -0.2500000 -0.2500000
                       0.0000000  0.0000000  0.0000000    -0.2500000 -0.2500000 -0.2500000
                       0.0000000  0.0000000  0.0000000    -0.2500000 -0.2500000 -0.2500000
           toldfe1     1.00000000E-06 Hartree
           toldfe2     0.00000000E+00 Hartree
           tolwfr1     0.00000000E+00
           tolwfr2     1.00000000E-12
            typat      1  1
          usekden           1
              wtk1       0.00391    0.01172    0.01172    0.01172    0.01172    0.01172
                         0.01172    0.01172    0.01172    0.02344    0.02344    0.02344
                         0.02344    0.02344    0.02344    0.01172    0.02344    0.02344
                         0.02344    0.02344    0.02344    0.01172    0.02344    0.02344
                         0.02344    0.02344    0.01172    0.02344    0.02344    0.01172
                         0.02344    0.01172    0.00391    0.01172    0.01172    0.01172
                         0.01172    0.01172    0.01172    0.02344    0.02344    0.02344
                         0.02344    0.01172    0.02344    0.02344    0.02344    0.01172
                         0.02344    0.01172
              wtk2       1.00000    1.00000    1.00000    1.00000    1.00000    1.00000
                         1.00000    1.00000    1.00000    1.00000    1.00000    1.00000
                         1.00000    1.00000    1.00000    1.00000    1.00000    1.00000
                         1.00000    1.00000    1.00000    1.00000    1.00000    1.00000
                         1.00000    1.00000    1.00000    1.00000    1.00000    1.00000
                         1.00000    1.00000    1.00000    1.00000    1.00000    1.00000
                         1.00000    1.00000    1.00000    1.00000    1.00000    1.00000
                         1.00000    1.00000    1.00000    1.00000    1.00000    1.00000
                         1.00000    1.00000
                       outvars : Printing only first  50 k-points.
           xangst      0.0000000000E+00  0.0000000000E+00  0.0000000000E+00
                       3.5290535050E+00  2.4954176646E+00  6.1124999733E+00
            xcart      0.0000000000E+00  0.0000000000E+00  0.0000000000E+00
                       6.6689446327E+00  4.7156559732E+00  1.1550950937E+01
             xred      0.0000000000E+00  0.0000000000E+00  0.0000000000E+00
                       7.5000000000E-01  7.5000000000E-01  7.5000000000E-01
            znucl       32.00000

================================================================================


- Timing analysis has been suppressed with timopt=0



================================================================================

 Suggested references for the acknowledgment of ABINIT usage.

 The users of ABINIT have little formal obligations with respect to the ABINIT group
 (those specified in the GNU General Public License, http://www.gnu.org/copyleft/gpl.txt).
 However, it is common practice in the scientific literature,
 to acknowledge the efforts of people that have made the research possible.
 In this spirit, please find below suggested citations of work written by ABINIT developers,
 corresponding to implementations inside of ABINIT that you have used in the present run.
 Note also that it will be of great value to readers of publications presenting these results,
 to read papers enabling them to understand the theoretical formalism and details
 of the ABINIT implementation.
 For information on why they are suggested, see also https://docs.abinit.org/theory/acknowledgments.
-
- [1] Libxc: A library of exchange and correlation functionals for density functional theory.
- M.A.L. Marques, M.J.T. Oliveira, T. Burnus, Computer Physics Communications 183, 2227 (2012).
- Comment: to be cited when LibXC is used (negative value of ixc)
- Strong suggestion to cite this paper.
- DOI and bibtex: see https://docs.abinit.org/theory/bibliography/#marques2012
-
- [2] The Abinit project: Impact, environment and recent developments.
- Computer Phys. Comm. 248, 107042 (2020).
- X.Gonze, B. Amadon, G. Antonius, F.Arnardi, L.Baguet, J.-M.Beuken,
- J.Bieder, F.Bottin, J.Bouchet, E.Bousquet, N.Brouwer, F.Bruneval,
- G.Brunin, T.Cavignac, J.-B. Charraud, Wei Chen, M.Cote, S.Cottenier,
- J.Denier, G.Geneste, Ph.Ghosez, M.Giantomassi, Y.Gillet, O.Gingras,
- D.R.Hamann, G.Hautier, Xu He, N.Helbig, N.Holzwarth, Y.Jia, F.Jollet,
- W.Lafargue-Dit-Hauret, K.Lejaeghere, M.A.L.Marques, A.Martin, C.Martins,
- H.P.C. Miranda, F.Naccarato, K. Persson, G.Petretto, V.Planes, Y.Pouillon,
- S.Prokhorenko, F.Ricci, G.-M.Rignanese, A.H.Romero, M.M.Schmitt, M.Torrent,
- M.J.van Setten, B.Van Troeye, M.J.Verstraete, G.Zerah and J.W.Zwanzig
- Comment: the fifth generic paper describing the ABINIT project.
- Note that a version of this paper, that is not formatted for Computer Phys. Comm. 
- is available at https://www.abinit.org/sites/default/files/ABINIT20.pdf .
- The licence allows the authors to put it on the Web.
- DOI and bibtex: see https://docs.abinit.org/theory/bibliography/#gonze2020
-
- [3] ABINIT: Overview, and focus on selected capabilities
- J. Chem. Phys. 152, 124102 (2020).
- A. Romero, D.C. Allan, B. Amadon, G. Antonius, T. Applencourt, L.Baguet,
- J.Bieder, F.Bottin, J.Bouchet, E.Bousquet, F.Bruneval,
- G.Brunin, D.Caliste, M.Cote,
- J.Denier, C. Dreyer, Ph.Ghosez, M.Giantomassi, Y.Gillet, O.Gingras,
- D.R.Hamann, G.Hautier, F.Jollet, G. Jomard,
- A.Martin, 
- H.P.C. Miranda, F.Naccarato, G.Petretto, N.A. Pike, V.Planes,
- S.Prokhorenko, T. Rangel, F.Ricci, G.-M.Rignanese, M.Royo, M.Stengel, M.Torrent,
- M.J.van Setten, B.Van Troeye, M.J.Verstraete, J.Wiktor, J.W.Zwanziger, and X.Gonze.
- Comment: a global overview of ABINIT, with focus on selected capabilities .
- Note that a version of this paper, that is not formatted for J. Chem. Phys 
- is available at https://www.abinit.org/sites/default/files/ABINIT20_JPC.pdf .
- The licence allows the authors to put it on the Web.
- DOI and bibtex: see https://docs.abinit.org/theory/bibliography/#romero2020
-
- [4] Recent developments in the ABINIT software package.
- Computer Phys. Comm. 205, 106 (2016).
- X.Gonze, F.Jollet, F.Abreu Araujo, D.Adams, B.Amadon, T.Applencourt,
- C.Audouze, J.-M.Beuken, J.Bieder, A.Bokhanchuk, E.Bousquet, F.Bruneval
- D.Caliste, M.Cote, F.Dahm, F.Da Pieve, M.Delaveau, M.Di Gennaro,
- B.Dorado, C.Espejo, G.Geneste, L.Genovese, A.Gerossier, M.Giantomassi,
- Y.Gillet, D.R.Hamann, L.He, G.Jomard, J.Laflamme Janssen, S.Le Roux,
- A.Levitt, A.Lherbier, F.Liu, I.Lukacevic, A.Martin, C.Martins,
- M.J.T.Oliveira, S.Ponce, Y.Pouillon, T.Rangel, G.-M.Rignanese,
- A.H.Romero, B.Rousseau, O.Rubel, A.A.Shukri, M.Stankovski, M.Torrent,
- M.J.Van Setten, B.Van Troeye, M.J.Verstraete, D.Waroquier, J.Wiktor,
- B.Xu, A.Zhou, J.W.Zwanziger.
- Comment: the fourth generic paper describing the ABINIT project.
- Note that a version of this paper, that is not formatted for Computer Phys. Comm. 
- is available at https://www.abinit.org/sites/default/files/ABINIT16.pdf .
- The licence allows the authors to put it on the Web.
- DOI and bibtex: see https://docs.abinit.org/theory/bibliography/#gonze2016
-
- And optionally:
-
- [5] ABINIT: First-principles approach of materials and nanosystem properties.
- Computer Phys. Comm. 180, 2582-2615 (2009).
- X. Gonze, B. Amadon, P.-M. Anglade, J.-M. Beuken, F. Bottin, P. Boulanger, F. Bruneval,
- D. Caliste, R. Caracas, M. Cote, T. Deutsch, L. Genovese, Ph. Ghosez, M. Giantomassi
- S. Goedecker, D.R. Hamann, P. Hermet, F. Jollet, G. Jomard, S. Leroux, M. Mancini, S. Mazevet,
- M.J.T. Oliveira, G. Onida, Y. Pouillon, T. Rangel, G.-M. Rignanese, D. Sangalli, R. Shaltaf,
- M. Torrent, M.J. Verstraete, G. Zerah, J.W. Zwanziger
- Comment: the third generic paper describing the ABINIT project.
- Note that a version of this paper, that is not formatted for Computer Phys. Comm. 
- is available at https://www.abinit.org/sites/default/files/ABINIT_CPC_v10.pdf .
- The licence allows the authors to put it on the Web.
- DOI and bibtex: see https://docs.abinit.org/theory/bibliography/#gonze2009
-
- Proc.   0 individual time (sec): cpu=        148.0  wall=        148.0

================================================================================

 Calculation completed.
.Delivered   3 WARNINGs and  10 COMMENTs to log file.
+Overall time at end (sec) : cpu=        148.0  wall=        148.0
