
.Version 9.4.2 of ABINIT 
.(MPI version, prepared for a x86_64_linux_gnu9.3 computer) 

.Copyright (C) 1998-2021 ABINIT group . 
 ABINIT comes with ABSOLUTELY NO WARRANTY.
 It is free software, and you are welcome to redistribute it
 under certain conditions (GNU General Public License,
 see ~abinit/COPYING or http://www.gnu.org/copyleft/gpl.txt).

 ABINIT is a project of the Universite Catholique de Louvain,
 Corning Inc. and other collaborators, see ~abinit/doc/developers/contributors.txt .
 Please read https://docs.abinit.org/theory/acknowledgments for suggested
 acknowledgments of the ABINIT effort.
 For more information, see https://www.abinit.org .

.Starting date : Tue 24 Aug 2021.
- ( at 15h12 )
  
- input  file    -> sigga.abi
- output file    -> sigga.abo
- root for input  files -> siggai
- root for output files -> siggao


 DATASET    1 : space group Fd -3 m (#227); Bravais cF (face-center cubic)
================================================================================
 Values of the parameters that define the memory need for DATASET  1.
     intxc =       0    ionmov =       0      iscf =       7    lmnmax =       6
     lnmax =       6     mgfft =      27  mpssoang =       3    mqgrid =    3001
     natom =       2  nloc_mem =       1    nspden =       1   nspinor =       1
    nsppol =       1      nsym =      48    n1xccc =    2501    ntypat =       1
    occopt =       1   xclevel =       2
-    mband =           5        mffmem =           1         mkmem =          60
       mpw =         775          nfft =       19683          nkpt =          60
================================================================================
P This job should need less than                      11.118 Mbytes of memory.
  Rough estimation (10% accuracy) of disk space for files :
_ WF disk file :      3.550 Mbytes ; DEN or POT disk file :      0.152 Mbytes.
================================================================================


 DATASET    2 : space group Fd -3 m (#227); Bravais cF (face-center cubic)
================================================================================
 Values of the parameters that define the memory need for DATASET  2.
     intxc =       0    ionmov =       0      iscf =      -2    lmnmax =       6
     lnmax =       6     mgfft =      27  mpssoang =       3    mqgrid =    3001
     natom =       2  nloc_mem =       1    nspden =       1   nspinor =       1
    nsppol =       1      nsym =      48    n1xccc =    2501    ntypat =       1
    occopt =       1   xclevel =       2
-    mband =          10        mffmem =           1         mkmem =          63
       mpw =         785          nfft =       19683          nkpt =          63
================================================================================
P This job should need less than                      12.605 Mbytes of memory.
  Rough estimation (10% accuracy) of disk space for files :
_ WF disk file :      7.548 Mbytes ; DEN or POT disk file :      0.152 Mbytes.
================================================================================

--------------------------------------------------------------------------------
------------- Echo of variables that govern the present computation ------------
--------------------------------------------------------------------------------
-
- outvars: echo of selected default values                                      
-   iomode0 =  0 , fftalg0 =112 , wfoptalg0 =  0
-
- outvars: echo of global parameters not present in the input file              
-  max_nthreads =    0
-
 -outvars: echo values of preprocessed input variables --------
            acell      1.0000000000E+00  1.0000000000E+00  1.0000000000E+00 Bohr
              amu      2.80855000E+01
      chksymbreak           0
           diemac      1.50000000E+01
             ecut      1.50000000E+01 Hartree
           enunit1          0
           enunit2          1
-          fftalg         112
           getden1          0
           getden2         -1
             iscf1          7
             iscf2         -2
           istwfk2       0    0    0    0    0    0    0    0    0    0
                         0    0    0    0    0    0    0    0    0    0
                         0    0    0    0    2    0    0    0    0    0
                         0    0    0    0    0    0    0    0    0    0
                         0    0    0    0    0    0    0    0    0    0
                       outvar_i_n : Printing only first  50 k-points.
              ixc          23
           jdtset        1    2
              kpt1     6.25000000E-02  6.25000000E-02  6.25000000E-02
                       1.87500000E-01  6.25000000E-02  6.25000000E-02
                       3.12500000E-01  6.25000000E-02  6.25000000E-02
                       4.37500000E-01  6.25000000E-02  6.25000000E-02
                      -4.37500000E-01  6.25000000E-02  6.25000000E-02
                      -3.12500000E-01  6.25000000E-02  6.25000000E-02
                      -1.87500000E-01  6.25000000E-02  6.25000000E-02
                      -6.25000000E-02  6.25000000E-02  6.25000000E-02
                       1.87500000E-01  1.87500000E-01  6.25000000E-02
                       3.12500000E-01  1.87500000E-01  6.25000000E-02
                       4.37500000E-01  1.87500000E-01  6.25000000E-02
                      -4.37500000E-01  1.87500000E-01  6.25000000E-02
                      -3.12500000E-01  1.87500000E-01  6.25000000E-02
                      -1.87500000E-01  1.87500000E-01  6.25000000E-02
                      -6.25000000E-02  1.87500000E-01  6.25000000E-02
                       3.12500000E-01  3.12500000E-01  6.25000000E-02
                       4.37500000E-01  3.12500000E-01  6.25000000E-02
                      -4.37500000E-01  3.12500000E-01  6.25000000E-02
                      -3.12500000E-01  3.12500000E-01  6.25000000E-02
                      -1.87500000E-01  3.12500000E-01  6.25000000E-02
                      -6.25000000E-02  3.12500000E-01  6.25000000E-02
                       4.37500000E-01  4.37500000E-01  6.25000000E-02
                      -4.37500000E-01  4.37500000E-01  6.25000000E-02
                      -3.12500000E-01  4.37500000E-01  6.25000000E-02
                      -1.87500000E-01  4.37500000E-01  6.25000000E-02
                      -6.25000000E-02  4.37500000E-01  6.25000000E-02
                      -4.37500000E-01 -4.37500000E-01  6.25000000E-02
                      -3.12500000E-01 -4.37500000E-01  6.25000000E-02
                      -1.87500000E-01 -4.37500000E-01  6.25000000E-02
                      -3.12500000E-01 -3.12500000E-01  6.25000000E-02
                      -1.87500000E-01 -3.12500000E-01  6.25000000E-02
                      -1.87500000E-01 -1.87500000E-01  6.25000000E-02
                       1.87500000E-01  1.87500000E-01  1.87500000E-01
                       3.12500000E-01  1.87500000E-01  1.87500000E-01
                       4.37500000E-01  1.87500000E-01  1.87500000E-01
                      -4.37500000E-01  1.87500000E-01  1.87500000E-01
                      -3.12500000E-01  1.87500000E-01  1.87500000E-01
                      -1.87500000E-01  1.87500000E-01  1.87500000E-01
                       3.12500000E-01  3.12500000E-01  1.87500000E-01
                       4.37500000E-01  3.12500000E-01  1.87500000E-01
                      -4.37500000E-01  3.12500000E-01  1.87500000E-01
                      -3.12500000E-01  3.12500000E-01  1.87500000E-01
                      -1.87500000E-01  3.12500000E-01  1.87500000E-01
                       4.37500000E-01  4.37500000E-01  1.87500000E-01
                      -4.37500000E-01  4.37500000E-01  1.87500000E-01
                      -3.12500000E-01  4.37500000E-01  1.87500000E-01
                      -1.87500000E-01  4.37500000E-01  1.87500000E-01
                      -4.37500000E-01 -4.37500000E-01  1.87500000E-01
                      -3.12500000E-01 -4.37500000E-01  1.87500000E-01
                      -3.12500000E-01 -3.12500000E-01  1.87500000E-01
              kpt2    -5.00000000E-01 -5.00000000E-01 -5.00000000E-01
                      -4.79166667E-01 -4.79166667E-01 -4.79166667E-01
                      -4.58333333E-01 -4.58333333E-01 -4.58333333E-01
                      -4.37500000E-01 -4.37500000E-01 -4.37500000E-01
                      -4.16666667E-01 -4.16666667E-01 -4.16666667E-01
                      -3.95833333E-01 -3.95833333E-01 -3.95833333E-01
                      -3.75000000E-01 -3.75000000E-01 -3.75000000E-01
                      -3.54166667E-01 -3.54166667E-01 -3.54166667E-01
                      -3.33333333E-01 -3.33333333E-01 -3.33333333E-01
                      -3.12500000E-01 -3.12500000E-01 -3.12500000E-01
                      -2.91666667E-01 -2.91666667E-01 -2.91666667E-01
                      -2.70833333E-01 -2.70833333E-01 -2.70833333E-01
                      -2.50000000E-01 -2.50000000E-01 -2.50000000E-01
                      -2.29166667E-01 -2.29166667E-01 -2.29166667E-01
                      -2.08333333E-01 -2.08333333E-01 -2.08333333E-01
                      -1.87500000E-01 -1.87500000E-01 -1.87500000E-01
                      -1.66666667E-01 -1.66666667E-01 -1.66666667E-01
                      -1.45833333E-01 -1.45833333E-01 -1.45833333E-01
                      -1.25000000E-01 -1.25000000E-01 -1.25000000E-01
                      -1.04166667E-01 -1.04166667E-01 -1.04166667E-01
                      -8.33333333E-02 -8.33333333E-02 -8.33333333E-02
                      -6.25000000E-02 -6.25000000E-02 -6.25000000E-02
                      -4.16666667E-02 -4.16666667E-02 -4.16666667E-02
                      -2.08333333E-02 -2.08333333E-02 -2.08333333E-02
                       0.00000000E+00  0.00000000E+00  0.00000000E+00
                       1.78571429E-02  0.00000000E+00  1.78571429E-02
                       3.57142857E-02  0.00000000E+00  3.57142857E-02
                       5.35714286E-02  0.00000000E+00  5.35714286E-02
                       7.14285714E-02  0.00000000E+00  7.14285714E-02
                       8.92857143E-02  0.00000000E+00  8.92857143E-02
                       1.07142857E-01  0.00000000E+00  1.07142857E-01
                       1.25000000E-01  0.00000000E+00  1.25000000E-01
                       1.42857143E-01  0.00000000E+00  1.42857143E-01
                       1.60714286E-01  0.00000000E+00  1.60714286E-01
                       1.78571429E-01  0.00000000E+00  1.78571429E-01
                       1.96428571E-01  0.00000000E+00  1.96428571E-01
                       2.14285714E-01  0.00000000E+00  2.14285714E-01
                       2.32142857E-01  0.00000000E+00  2.32142857E-01
                       2.50000000E-01  0.00000000E+00  2.50000000E-01
                       2.67857143E-01  0.00000000E+00  2.67857143E-01
                       2.85714286E-01  0.00000000E+00  2.85714286E-01
                       3.03571429E-01  0.00000000E+00  3.03571429E-01
                       3.21428571E-01  0.00000000E+00  3.21428571E-01
                       3.39285714E-01  0.00000000E+00  3.39285714E-01
                       3.57142857E-01  0.00000000E+00  3.57142857E-01
                       3.75000000E-01  0.00000000E+00  3.75000000E-01
                       3.92857143E-01  0.00000000E+00  3.92857143E-01
                       4.10714286E-01  0.00000000E+00  4.10714286E-01
                       4.28571429E-01  0.00000000E+00  4.28571429E-01
                       4.46428571E-01  0.00000000E+00  4.46428571E-01
                       outvar_i_n : Printing only first  50 k-points.
           kptopt1          1
           kptopt2         -3
         kptrlatt        8    0    0      0    8    0      0    0    8
          kptrlen1     5.84601837E+01
          kptrlen2     3.00000000E+01
P           mkmem1         60
P           mkmem2         63
            natom           2
            nband1          5
            nband2         10
           nbdbuf1          0
           nbdbuf2          2
           ndtset           2
           ndivsm1          0
           ndivsm2         10
            ngfft          27      27      27
             nkpt1         60
             nkpt2         63
            nstep          50
             nsym          48
           ntypat           1
              occ      2.000000  2.000000  2.000000  2.000000  0.000000
            rprim      6.3285005244E+00  0.0000000000E+00  3.6537614813E+00
                       2.1095001748E+00  5.9665675141E+00  3.6537614813E+00
                       0.0000000000E+00  0.0000000000E+00  7.3075229627E+00
           shiftk      5.00000000E-01  5.00000000E-01  5.00000000E-01
          spgroup         227
           symrel      1  0  0   0  1  0   0  0  1      -1  0  0   0 -1  0   0  0 -1
                       0 -1  1   0 -1  0   1 -1  0       0  1 -1   0  1  0  -1  1  0
                      -1  0  0  -1  0  1  -1  1  0       1  0  0   1  0 -1   1 -1  0
                       0  1 -1   1  0 -1   0  0 -1       0 -1  1  -1  0  1   0  0  1
                      -1  0  0  -1  1  0  -1  0  1       1  0  0   1 -1  0   1  0 -1
                       0 -1  1   1 -1  0   0 -1  0       0  1 -1  -1  1  0   0  1  0
                       1  0  0   0  0  1   0  1  0      -1  0  0   0  0 -1   0 -1  0
                       0  1 -1   0  0 -1   1  0 -1       0 -1  1   0  0  1  -1  0  1
                      -1  0  1  -1  1  0  -1  0  0       1  0 -1   1 -1  0   1  0  0
                       0 -1  0   1 -1  0   0 -1  1       0  1  0  -1  1  0   0  1 -1
                       1  0 -1   0  0 -1   0  1 -1      -1  0  1   0  0  1   0 -1  1
                       0  1  0   0  0  1   1  0  0       0 -1  0   0  0 -1  -1  0  0
                       1  0 -1   0  1 -1   0  0 -1      -1  0  1   0 -1  1   0  0  1
                       0 -1  0   0 -1  1   1 -1  0       0  1  0   0  1 -1  -1  1  0
                      -1  0  1  -1  0  0  -1  1  0       1  0 -1   1  0  0   1 -1  0
                       0  1  0   1  0  0   0  0  1       0 -1  0  -1  0  0   0  0 -1
                       0  0 -1   0  1 -1   1  0 -1       0  0  1   0 -1  1  -1  0  1
                       1 -1  0   0 -1  1   0 -1  0      -1  1  0   0  1 -1   0  1  0
                       0  0  1   1  0  0   0  1  0       0  0 -1  -1  0  0   0 -1  0
                      -1  1  0  -1  0  0  -1  0  1       1 -1  0   1  0  0   1  0 -1
                       0  0  1   0  1  0   1  0  0       0  0 -1   0 -1  0  -1  0  0
                       1 -1  0   0 -1  0   0 -1  1      -1  1  0   0  1  0   0  1 -1
                       0  0 -1   1  0 -1   0  1 -1       0  0  1  -1  0  1   0 -1  1
                      -1  1  0  -1  0  1  -1  0  0       1 -1  0   1  0 -1   1  0  0
            tnons      0.0000000  0.0000000  0.0000000     0.2500000  0.2500000  0.2500000
                       0.0000000  0.0000000  0.0000000     0.2500000  0.2500000  0.2500000
                       0.0000000  0.0000000  0.0000000     0.2500000  0.2500000  0.2500000
                       0.0000000  0.0000000  0.0000000     0.2500000  0.2500000  0.2500000
                       0.0000000  0.0000000  0.0000000     0.2500000  0.2500000  0.2500000
                       0.0000000  0.0000000  0.0000000     0.2500000  0.2500000  0.2500000
                       0.0000000  0.0000000  0.0000000     0.2500000  0.2500000  0.2500000
                       0.0000000  0.0000000  0.0000000     0.2500000  0.2500000  0.2500000
                       0.0000000  0.0000000  0.0000000     0.2500000  0.2500000  0.2500000
                       0.0000000  0.0000000  0.0000000     0.2500000  0.2500000  0.2500000
                       0.0000000  0.0000000  0.0000000     0.2500000  0.2500000  0.2500000
                       0.0000000  0.0000000  0.0000000     0.2500000  0.2500000  0.2500000
                       0.0000000  0.0000000  0.0000000     0.2500000  0.2500000  0.2500000
                       0.0000000  0.0000000  0.0000000     0.2500000  0.2500000  0.2500000
                       0.0000000  0.0000000  0.0000000     0.2500000  0.2500000  0.2500000
                       0.0000000  0.0000000  0.0000000     0.2500000  0.2500000  0.2500000
                       0.0000000  0.0000000  0.0000000     0.2500000  0.2500000  0.2500000
                       0.0000000  0.0000000  0.0000000     0.2500000  0.2500000  0.2500000
                       0.0000000  0.0000000  0.0000000     0.2500000  0.2500000  0.2500000
                       0.0000000  0.0000000  0.0000000     0.2500000  0.2500000  0.2500000
                       0.0000000  0.0000000  0.0000000     0.2500000  0.2500000  0.2500000
                       0.0000000  0.0000000  0.0000000     0.2500000  0.2500000  0.2500000
                       0.0000000  0.0000000  0.0000000     0.2500000  0.2500000  0.2500000
                       0.0000000  0.0000000  0.0000000     0.2500000  0.2500000  0.2500000
           toldfe1     1.00000000E-06 Hartree
           toldfe2     0.00000000E+00 Hartree
           tolwfr1     0.00000000E+00
           tolwfr2     1.00000000E-12
            typat      1  1
              wtk1       0.00391    0.01172    0.01172    0.01172    0.01172    0.01172
                         0.01172    0.01172    0.01172    0.02344    0.02344    0.02344
                         0.02344    0.02344    0.02344    0.01172    0.02344    0.02344
                         0.02344    0.02344    0.02344    0.01172    0.02344    0.02344
                         0.02344    0.02344    0.01172    0.02344    0.02344    0.01172
                         0.02344    0.01172    0.00391    0.01172    0.01172    0.01172
                         0.01172    0.01172    0.01172    0.02344    0.02344    0.02344
                         0.02344    0.01172    0.02344    0.02344    0.02344    0.01172
                         0.02344    0.01172
              wtk2       1.00000    1.00000    1.00000    1.00000    1.00000    1.00000
                         1.00000    1.00000    1.00000    1.00000    1.00000    1.00000
                         1.00000    1.00000    1.00000    1.00000    1.00000    1.00000
                         1.00000    1.00000    1.00000    1.00000    1.00000    1.00000
                         1.00000    1.00000    1.00000    1.00000    1.00000    1.00000
                         1.00000    1.00000    1.00000    1.00000    1.00000    1.00000
                         1.00000    1.00000    1.00000    1.00000    1.00000    1.00000
                         1.00000    1.00000    1.00000    1.00000    1.00000    1.00000
                         1.00000    1.00000
                       outvars : Printing only first  50 k-points.
           xangst      0.0000000000E+00  0.0000000000E+00  0.0000000000E+00
                       1.1162994140E+00  7.8934288549E-01  1.9334873015E+00
            xcart      0.0000000000E+00  0.0000000000E+00  0.0000000000E+00
                       2.1095001748E+00  1.4916418785E+00  3.6537614813E+00
             xred      0.0000000000E+00  0.0000000000E+00  0.0000000000E+00
                       2.5000000000E-01  2.5000000000E-01  2.5000000000E-01
            znucl       14.00000

================================================================================

 chkinp: Checking input parameters for consistency, jdtset=   1.

 chkinp: Checking input parameters for consistency, jdtset=   2.

================================================================================
== DATASET  1 ==================================================================
-   mpi_nproc: 1, omp_nthreads: -1 (-1 if OMP is not activated)


--- !DatasetInfo
iteration_state: {dtset: 1, }
dimensions: {natom: 2, nkpt: 60, mband: 5, nsppol: 1, nspinor: 1, nspden: 1, mpw: 775, }
cutoff_energies: {ecut:  15.0, pawecutdg:  -1.0, }
electrons: {nelect:   8.00000000E+00, charge:   0.00000000E+00, occopt:   1.00000000E+00, tsmear:   1.00000000E-02, }
meta: {optdriver: 0, ionmov: 0, optcell: 0, iscf: 7, paral_kgb: 0, }
...

 Exchange-correlation functional for the present dataset will be:
  GGA: Wu Cohen functional - ixc=23
 Citation for XC functional:
  Z. Wu and R. E. Cohen, PRB 73, 235116 (2006)

 Real(R)+Recip(G) space primitive vectors, cartesian coordinates (Bohr,Bohr^-1):
 R(1)=  6.3285005  0.0000000  3.6537615  G(1)=  0.1580153 -0.0558669  0.0000000
 R(2)=  2.1095002  5.9665675  3.6537615  G(2)=  0.0000000  0.1676006  0.0000000
 R(3)=  0.0000000  0.0000000  7.3075230  G(3)= -0.0790077 -0.0558669  0.1368453
 Unit cell volume ucvol=  2.7592787E+02 bohr^3
 Angles (23,13,12)=  6.00000000E+01  6.00000000E+01  6.00000000E+01 degrees

 getcut: wavevector=  0.0000  0.0000  0.0000  ngfft=  27  27  27
         ecut(hartree)=     15.000   => boxcut(ratio)=   2.04378

--- Pseudopotential description ------------------------------------------------
- pspini: atom type   1  psp file is /home/varre/sp/Si.psp8
- pspatm: opening atomic psp file    /home/varre/sp/Si.psp8
- Si    ONCVPSP-3.3.0  r_core=   1.60303   1.72197   1.91712
- 14.00000   4.00000    180112                znucl, zion, pspdat
    8 -116133    2    4       600   0.00000   pspcod,pspxc,lmax,lloc,mmax,r2well
    5.99000000000000    4.00000000000000    0.00000000000000   rchrg,fchrg,qchrg
     nproj     2     2     2
     extension_switch     1
  pspatm : epsatm=    7.86468782
         --- l  ekb(1:nproj) -->
             0    5.384426    0.843824
             1    2.663259    0.615854
             2   -2.267219   -0.458043
 pspatm: atomic psp has been read  and splines computed

   1.25835005E+02                                ecore*ucvol(ha*bohr**3)
--------------------------------------------------------------------------------

_setup2: Arith. and geom. avg. npw (full set) are     765.727     765.710

================================================================================

--- !BeginCycle
iteration_state: {dtset: 1, }
solver: {iscf: 7, nstep: 50, nline: 4, wfoptalg: 0, }
tolerances: {toldfe: 1.00E-06, }
...

     iter   Etot(hartree)      deltaE(h)  residm     vres2
 ETOT  1  -8.4676062516881    -8.468E+00 3.131E-02 5.984E+00
 ETOT  2  -8.4715906313486    -3.984E-03 4.178E-03 1.827E-01
 ETOT  3  -8.4716377766251    -4.715E-05 6.364E-04 3.935E-03
 ETOT  4  -8.4716383106018    -5.340E-07 4.276E-04 4.654E-05
 ETOT  5  -8.4716383182496    -7.648E-09 1.923E-04 1.609E-07

 At SCF step    5, etot is converged : 
  for the second time, diff in etot=  7.648E-09 < toldfe=  1.000E-06

 Cartesian components of stress tensor (hartree/bohr^3)
  sigma(1 1)=  6.02025918E-05  sigma(3 2)=  9.56937945E-15
  sigma(2 2)=  6.02025917E-05  sigma(3 1)=  1.35331185E-14
  sigma(3 3)=  6.02025918E-05  sigma(2 1)=  0.00000000E+00


--- !ResultsGS
iteration_state: {dtset: 1, }
comment   : Summary of ground state results
lattice_vectors:
- [  6.3285005,   0.0000000,   3.6537615, ]
- [  2.1095002,   5.9665675,   3.6537615, ]
- [  0.0000000,   0.0000000,   7.3075230, ]
lattice_lengths: [   7.30752,    7.30752,    7.30752, ]
lattice_angles: [ 60.000,  60.000,  60.000, ] # degrees, (23, 13, 12)
lattice_volume:   2.7592787E+02
convergence: {deltae: -7.648E-09, res2:  1.609E-07, residm:  1.923E-04, diffor: null, }
etotal    :  -8.47163832E+00
entropy   :   0.00000000E+00
fermie    :   1.58559501E-01
cartesian_stress_tensor: # hartree/bohr^3
- [  6.02025918E-05,   0.00000000E+00,   1.35331185E-14, ]
- [  0.00000000E+00,   6.02025917E-05,   9.56937945E-15, ]
- [  1.35331185E-14,   9.56937945E-15,   6.02025918E-05, ]
pressure_GPa:  -1.7712E+00
xred      :
- [  0.0000E+00,   0.0000E+00,   0.0000E+00, Si]
- [  2.5000E-01,   2.5000E-01,   2.5000E-01, Si]
cartesian_forces: # hartree/bohr
- [  1.36153338E-27,   2.40687372E-28,   0.00000000E+00, ]
- [ -1.36153338E-27,  -2.40687372E-28,   0.00000000E+00, ]
force_length_stats: {min:   1.38264368E-27, max:   1.38264368E-27, mean:   1.38264368E-27, }
...

 Integrated electronic density in atomic spheres:
 ------------------------------------------------
 Atom  Sphere_radius  Integrated_density
    1        2.00000          1.72420921
    2        2.00000          1.75829477
================================================================================

 ----iterations are completed or convergence reached----

 Mean square residual over all n,k,spin=   10.815E-07; max=  19.226E-05
 reduced coordinates (array xred) for    2 atoms
       0.000000000000      0.000000000000      0.000000000000
       0.250000000000      0.250000000000      0.250000000000
 rms dE/dt=  1.3624E-26; max dE/dt=  1.7233E-26; dE/dt below (all hartree)
    1      -0.000000000000     -0.000000000000      0.000000000000
    2      -0.000000000000      0.000000000000      0.000000000000

 cartesian coordinates (angstrom) at end:
    1      0.00000000000000     0.00000000000000     0.00000000000000
    2      1.11629941402078     0.78934288549380     1.93348730154123

 cartesian forces (hartree/bohr) at end:
    1      0.00000000000000     0.00000000000000     0.00000000000000
    2     -0.00000000000000    -0.00000000000000     0.00000000000000
 frms,max,avg= 7.9826970E-28 1.3615334E-27   0.000E+00  0.000E+00  0.000E+00 h/b

 cartesian forces (eV/Angstrom) at end:
    1      0.00000000000000     0.00000000000000     0.00000000000000
    2     -0.00000000000000    -0.00000000000000     0.00000000000000
 frms,max,avg= 4.1048675E-26 7.0012856E-26   0.000E+00  0.000E+00  0.000E+00 e/A
 length scales=  1.000000000000  1.000000000000  1.000000000000 bohr
              =  0.529177208590  0.529177208590  0.529177208590 angstroms
 prteigrs : about to open file siggao_DS1_EIG
 Fermi (or HOMO) energy (hartree) =   0.15856   Average Vxc (hartree)=  -0.34371
 Eigenvalues (hartree) for nkpt=  60  k points:
 kpt#   1, nband=  5, wtk=  0.00391, kpt=  0.0625  0.0625  0.0625 (reduced coord)
  -0.27164    0.14184    0.15856    0.15856    0.25617
 prteigrs : prtvol=0 or 1, do not print more k-points.


--- !EnergyTerms
iteration_state     : {dtset: 1, }
comment             : Components of total free energy in Hartree
kinetic             :  3.03604252569156E+00
hartree             :  5.47837837448164E-01
xc                  : -3.07189336230900E+00
Ewald energy        : -8.33998923103006E+00
psp_core            :  4.56043114035606E-01
local_psp           : -2.33597601328834E+00
non_local_psp       :  1.23629681120251E+00
total_energy        : -8.47163831824956E+00
total_energy_eV     : -2.30525002200974E+02
band_energy         : -1.83489918275317E-01
...


 Cartesian components of stress tensor (hartree/bohr^3)
  sigma(1 1)=  6.02025918E-05  sigma(3 2)=  9.56937945E-15
  sigma(2 2)=  6.02025917E-05  sigma(3 1)=  1.35331185E-14
  sigma(3 3)=  6.02025918E-05  sigma(2 1)=  0.00000000E+00

-Cartesian components of stress tensor (GPa)         [Pressure= -1.7712E+00 GPa]
- sigma(1 1)=  1.77122110E+00  sigma(3 2)=  2.81540816E-10
- sigma(2 2)=  1.77122110E+00  sigma(3 1)=  3.98158026E-10
- sigma(3 3)=  1.77122110E+00  sigma(2 1)=  0.00000000E+00

================================================================================
== DATASET  2 ==================================================================
-   mpi_nproc: 1, omp_nthreads: -1 (-1 if OMP is not activated)


--- !DatasetInfo
iteration_state: {dtset: 2, }
dimensions: {natom: 2, nkpt: 63, mband: 10, nsppol: 1, nspinor: 1, nspden: 1, mpw: 785, }
cutoff_energies: {ecut:  15.0, pawecutdg:  -1.0, }
electrons: {nelect:   8.00000000E+00, charge:   0.00000000E+00, occopt:   1.00000000E+00, tsmear:   1.00000000E-02, }
meta: {optdriver: 0, ionmov: 0, optcell: 0, iscf: -2, paral_kgb: 0, }
...

 mkfilename : getden/=0, take file _DEN from output of DATASET   1.

 Exchange-correlation functional for the present dataset will be:
  GGA: Wu Cohen functional - ixc=23
 Citation for XC functional:
  Z. Wu and R. E. Cohen, PRB 73, 235116 (2006)

 Real(R)+Recip(G) space primitive vectors, cartesian coordinates (Bohr,Bohr^-1):
 R(1)=  6.3285005  0.0000000  3.6537615  G(1)=  0.1580153 -0.0558669  0.0000000
 R(2)=  2.1095002  5.9665675  3.6537615  G(2)=  0.0000000  0.1676006  0.0000000
 R(3)=  0.0000000  0.0000000  7.3075230  G(3)= -0.0790077 -0.0558669  0.1368453
 Unit cell volume ucvol=  2.7592787E+02 bohr^3
 Angles (23,13,12)=  6.00000000E+01  6.00000000E+01  6.00000000E+01 degrees

 getcut: wavevector=  0.0000  0.0000  0.0000  ngfft=  27  27  27
         ecut(hartree)=     15.000   => boxcut(ratio)=   2.04378
--------------------------------------------------------------------------------


================================================================================
 prteigrs : about to open file siggao_DS2_EIG
 Non-SCF case, kpt    1 ( -0.50000 -0.50000 -0.50000), residuals and eigenvalues=
  6.19E-13  5.87E-13  5.50E-13  3.82E-13  6.14E-13  2.65E-13  5.04E-13  7.37E-13
  1.11E-06  9.55E-06
 -1.8920E-01 -9.2386E-02  1.1817E-01  1.1817E-01  2.1268E-01  2.8311E-01
  2.8311E-01  4.3676E-01  5.4683E-01  5.4687E-01
  prteigrs : nnsclo,ikpt=   50    1 max resid (incl. the buffer)=  9.55074E-06
 Non-SCF case, kpt    2 ( -0.47917 -0.47917 -0.47917), residuals and eigenvalues=
  5.30E-13  8.29E-13  1.17E-13  1.67E-13  2.47E-13  3.83E-13  5.09E-13  1.81E-13
  8.86E-07  8.57E-05
 -1.9009E-01 -9.1104E-02  1.1828E-01  1.1828E-01  2.1281E-01  2.8324E-01
  2.8324E-01  4.3697E-01  5.3945E-01  5.3966E-01
  prteigrs : nnsclo,ikpt=   50    2 max resid (incl. the buffer)=  8.56767E-05
 Non-SCF case, kpt    3 ( -0.45833 -0.45833 -0.45833), residuals and eigenvalues=
  4.07E-13  8.03E-13  2.12E-13  4.55E-13  2.71E-13  8.72E-13  4.90E-13  2.50E-13
  5.93E-09  9.69E-06
 -1.9263E-01 -8.7393E-02  1.1862E-01  1.1862E-01  2.1321E-01  2.8363E-01
  2.8363E-01  4.3758E-01  5.2641E-01  5.2644E-01
  prteigrs : nnsclo,ikpt=   50    3 max resid (incl. the buffer)=  9.68643E-06
 Non-SCF case, kpt    4 ( -0.43750 -0.43750 -0.43750), residuals and eigenvalues=
  4.30E-13  2.68E-13  3.74E-13  2.80E-13  3.11E-13  8.69E-13  2.33E-13  9.63E-13
  4.94E-09  3.54E-06
 -1.9648E-01 -8.1594E-02  1.1919E-01  1.1919E-01  2.1387E-01  2.8424E-01
  2.8424E-01  4.3854E-01  5.1271E-01  5.1272E-01
  prteigrs : nnsclo,ikpt=   50    4 max resid (incl. the buffer)=  3.54406E-06
 Non-SCF case, kpt    5 ( -0.41667 -0.41667 -0.41667), residuals and eigenvalues=
  5.75E-13  2.86E-13  4.35E-13  7.76E-13  3.34E-13  4.58E-13  2.82E-13  2.75E-13
  4.10E-10  5.85E-08
 -2.0125E-01 -7.4104E-02  1.1998E-01  1.1998E-01  2.1480E-01  2.8506E-01
  2.8506E-01  4.3980E-01  4.9930E-01  4.9930E-01
  prteigrs : nnsclo,ikpt=   50    5 max resid (incl. the buffer)=  5.85399E-08
 Non-SCF case, kpt    6 ( -0.39583 -0.39583 -0.39583), residuals and eigenvalues=
  8.99E-13  7.06E-13  2.13E-13  1.60E-13  4.32E-13  1.34E-13  4.31E-13  8.31E-13
  1.02E-12  3.76E-09
 -2.0659E-01 -6.5275E-02  1.2099E-01  1.2099E-01  2.1598E-01  2.8602E-01
  2.8602E-01  4.4121E-01  4.8645E-01  4.8645E-01
  prteigrs : nnsclo,ikpt=   50    6 max resid (incl. the buffer)=  3.75572E-09
 Non-SCF case, kpt    7 ( -0.37500 -0.37500 -0.37500), residuals and eigenvalues=
  3.42E-13  6.26E-13  7.14E-13  2.94E-13  5.42E-13  1.63E-13  4.77E-13  5.49E-13
  4.82E-13  2.16E-09
 -2.1223E-01 -5.5383E-02  1.2223E-01  1.2223E-01  2.1743E-01  2.8707E-01
  2.8707E-01  4.4248E-01  4.7433E-01  4.7433E-01
  prteigrs : nnsclo,ikpt=   50    7 max resid (incl. the buffer)=  2.16291E-09
 Non-SCF case, kpt    8 ( -0.35417 -0.35417 -0.35417), residuals and eigenvalues=
  8.15E-13  2.03E-13  3.69E-13  9.14E-13  2.86E-13  3.59E-13  1.53E-13  3.65E-13
  9.25E-13  4.37E-10
 -2.1798E-01 -4.4633E-02  1.2369E-01  1.2369E-01  2.1912E-01  2.8810E-01
  2.8810E-01  4.4306E-01  4.6305E-01  4.6305E-01
  prteigrs : nnsclo,ikpt=   50    8 max resid (incl. the buffer)=  4.37188E-10
 Non-SCF case, kpt    9 ( -0.33333 -0.33333 -0.33333), residuals and eigenvalues=
  7.30E-13  9.77E-13  2.98E-13  7.40E-13  2.29E-13  3.56E-13  1.89E-13  7.61E-13
  3.99E-13  5.32E-11
 -2.2368E-01 -3.3172E-02  1.2536E-01  1.2536E-01  2.2106E-01  2.8902E-01
  2.8902E-01  4.4186E-01  4.5278E-01  4.5278E-01
  prteigrs : nnsclo,ikpt=   50    9 max resid (incl. the buffer)=  5.31545E-11
 Non-SCF case, kpt   10 ( -0.31250 -0.31250 -0.31250), residuals and eigenvalues=
  6.08E-13  9.38E-13  2.48E-13  6.50E-13  1.93E-13  3.08E-13  1.61E-13  8.19E-13
  7.06E-13  2.06E-11
 -2.2926E-01 -2.1112E-02  1.2724E-01  1.2724E-01  2.2324E-01  2.8969E-01
  2.8969E-01  4.3743E-01  4.4364E-01  4.4364E-01
  prteigrs : nnsclo,ikpt=   50   10 max resid (incl. the buffer)=  2.05674E-11
 Non-SCF case, kpt   11 ( -0.29167 -0.29167 -0.29167), residuals and eigenvalues=
  8.06E-13  9.11E-13  2.21E-13  6.54E-13  1.90E-13  2.44E-13  8.52E-13  6.77E-13
  7.25E-13  7.94E-12
 -2.3463E-01 -8.5379E-03  1.2933E-01  1.2933E-01  2.2564E-01  2.8997E-01
  2.8997E-01  4.2931E-01  4.3579E-01  4.3579E-01
  prteigrs : nnsclo,ikpt=   50   11 max resid (incl. the buffer)=  7.93540E-12
 Non-SCF case, kpt   12 ( -0.27083 -0.27083 -0.27083), residuals and eigenvalues=
  3.53E-13  9.60E-13  2.15E-13  6.84E-13  2.03E-13  8.59E-13  5.10E-13  2.18E-13
  9.01E-13  4.06E-11
 -2.3974E-01  4.4795E-03  1.3162E-01  1.3162E-01  2.2824E-01  2.8972E-01
  2.8972E-01  4.1859E-01  4.2938E-01  4.2938E-01
  prteigrs : nnsclo,ikpt=   50   12 max resid (incl. the buffer)=  4.06165E-11
 Non-SCF case, kpt   13 ( -0.25000 -0.25000 -0.25000), residuals and eigenvalues=
  6.33E-13  2.98E-13  3.03E-13  4.36E-13  5.62E-13  3.08E-13  4.33E-13  5.03E-13
  1.41E-12  1.09E-10
 -2.4456E-01  1.7880E-02  1.3408E-01  1.3408E-01  2.3104E-01  2.8880E-01
  2.8880E-01  4.0645E-01  4.2454E-01  4.2454E-01
  prteigrs : nnsclo,ikpt=   50   13 max resid (incl. the buffer)=  1.08613E-10
 Non-SCF case, kpt   14 ( -0.22917 -0.22917 -0.22917), residuals and eigenvalues=
  6.04E-13  4.16E-13  4.12E-13  5.75E-13  2.80E-13  3.26E-13  5.05E-13  2.15E-13
  3.18E-12  1.25E-11
 -2.4906E-01  3.1603E-02  1.3671E-01  1.3671E-01  2.3399E-01  2.8713E-01
  2.8713E-01  3.9356E-01  4.2130E-01  4.2130E-01
  prteigrs : nnsclo,ikpt=   50   14 max resid (incl. the buffer)=  1.25072E-11
 Non-SCF case, kpt   15 ( -0.20833 -0.20833 -0.20833), residuals and eigenvalues=
  6.07E-13  3.74E-13  2.55E-13  1.12E-13  1.65E-13  3.42E-13  2.67E-13  8.60E-13
  9.66E-13  1.43E-12
 -2.5321E-01  4.5595E-02  1.3948E-01  1.3948E-01  2.3706E-01  2.8471E-01
  2.8471E-01  3.8027E-01  4.1971E-01  4.1971E-01
  prteigrs : nnsclo,ikpt=   50   15 max resid (incl. the buffer)=  1.43348E-12
 Non-SCF case, kpt   16 ( -0.18750 -0.18750 -0.18750), residuals and eigenvalues=
  8.72E-13  4.37E-13  1.86E-13  8.96E-13  4.07E-13  4.90E-13  8.43E-13  7.21E-13
  1.48E-11  4.01E-10
 -2.5701E-01  5.9782E-02  1.4236E-01  1.4236E-01  2.4021E-01  2.8162E-01
  2.8162E-01  3.6674E-01  4.1967E-01  4.1967E-01
  prteigrs : nnsclo,ikpt=   50   16 max resid (incl. the buffer)=  4.01385E-10
 Non-SCF case, kpt   17 ( -0.16667 -0.16667 -0.16667), residuals and eigenvalues=
  1.31E-13  4.53E-13  6.54E-13  2.84E-13  5.20E-13  7.10E-13  9.45E-13  7.99E-13
  3.64E-09  1.08E-08
 -2.6043E-01  7.4089E-02  1.4530E-01  1.4530E-01  2.4338E-01  2.7799E-01
  2.7799E-01  3.5309E-01  4.2100E-01  4.2100E-01
  prteigrs : nnsclo,ikpt=   50   17 max resid (incl. the buffer)=  1.07613E-08
 Non-SCF case, kpt   18 ( -0.14583 -0.14583 -0.14583), residuals and eigenvalues=
  1.44E-13  4.94E-13  5.95E-13  3.05E-13  3.73E-13  4.62E-13  8.82E-13  5.54E-13
  8.31E-09  6.85E-08
 -2.6347E-01  8.8412E-02  1.4825E-01  1.4825E-01  2.4649E-01  2.7401E-01
  2.7401E-01  3.3943E-01  4.2348E-01  4.2348E-01
  prteigrs : nnsclo,ikpt=   50   18 max resid (incl. the buffer)=  6.84871E-08
 Non-SCF case, kpt   19 ( -0.12500 -0.12500 -0.12500), residuals and eigenvalues=
  6.99E-13  1.93E-13  4.51E-13  6.10E-13  2.55E-13  4.59E-13  8.75E-13  7.85E-13
  6.14E-10  2.78E-08
 -2.6611E-01  1.0261E-01  1.5114E-01  1.5114E-01  2.4943E-01  2.6991E-01
  2.6991E-01  3.2592E-01  4.2687E-01  4.2687E-01
  prteigrs : nnsclo,ikpt=   50   19 max resid (incl. the buffer)=  2.77963E-08
 Non-SCF case, kpt   20 ( -0.10417 -0.10417 -0.10417), residuals and eigenvalues=
  7.49E-13  9.58E-13  2.37E-13  5.75E-13  3.29E-13  1.59E-13  4.86E-13  2.84E-13
  2.41E-10  7.28E-08
 -2.6836E-01  1.1649E-01  1.5390E-01  1.5390E-01  2.5208E-01  2.6589E-01
  2.6589E-01  3.1277E-01  4.3079E-01  4.3079E-01
  prteigrs : nnsclo,ikpt=   50   20 max resid (incl. the buffer)=  7.27691E-08
 Non-SCF case, kpt   21 ( -0.08333 -0.08333 -0.08333), residuals and eigenvalues=
  7.94E-13  2.42E-13  4.50E-13  3.79E-13  7.77E-13  2.61E-13  3.74E-13  2.09E-13
  1.24E-08  3.10E-06
 -2.7021E-01  1.2973E-01  1.5641E-01  1.5641E-01  2.5424E-01  2.6221E-01
  2.6221E-01  3.0037E-01  4.3498E-01  4.3499E-01
  prteigrs : nnsclo,ikpt=   50   21 max resid (incl. the buffer)=  3.09585E-06
 Non-SCF case, kpt   22 ( -0.06250 -0.06250 -0.06250), residuals and eigenvalues=
  5.09E-13  2.78E-13  1.92E-13  2.85E-13  3.02E-13  2.36E-13  5.70E-13  2.68E-13
  3.95E-10  2.94E-05
 -2.7165E-01  1.4184E-01  1.5855E-01  1.5855E-01  2.5564E-01  2.5905E-01
  2.5905E-01  2.8937E-01  4.3893E-01  4.3895E-01
  prteigrs : nnsclo,ikpt=   50   22 max resid (incl. the buffer)=  2.94096E-05
 Non-SCF case, kpt   23 ( -0.04167 -0.04167 -0.04167), residuals and eigenvalues=
  8.66E-13  1.93E-13  5.68E-13  4.92E-13  4.35E-13  8.12E-13  5.09E-13  7.94E-13
  7.42E-11  5.48E-06
 -2.7268E-01  1.5202E-01  1.6020E-01  1.6020E-01  2.5593E-01  2.5662E-01
  2.5662E-01  2.8081E-01  4.4226E-01  4.4453E-01
  prteigrs : nnsclo,ikpt=   50   23 max resid (incl. the buffer)=  5.48337E-06
 Non-SCF case, kpt   24 ( -0.02083 -0.02083 -0.02083), residuals and eigenvalues=
  7.22E-13  2.53E-13  5.53E-13  5.50E-13  2.00E-13  6.58E-13  2.84E-13  2.60E-13
  2.55E-06  2.86E-12
 -2.7330E-01  1.5905E-01  1.6125E-01  1.6125E-01  2.5509E-01  2.5509E-01
  2.5516E-01  2.7572E-01  4.4193E-01  4.4449E-01
  prteigrs : nnsclo,ikpt=   50   24 max resid (incl. the buffer)=  2.54983E-06
 Non-SCF case, kpt   25 (  0.00000  0.00000  0.00000), residuals and eigenvalues=
  4.17E-13  7.18E-13  3.98E-13  3.76E-13  7.81E-13  6.63E-13  5.56E-13  6.01E-13
  6.10E-05  1.77E-11
 -2.7350E-01  1.6161E-01  1.6161E-01  1.6161E-01  2.5456E-01  2.5456E-01
  2.5456E-01  2.7415E-01  4.4212E-01  4.4528E-01
  prteigrs : nnsclo,ikpt=   50   25 max resid (incl. the buffer)=  6.10474E-05
 Non-SCF case, kpt   26 (  0.01786  0.00000  0.01786), residuals and eigenvalues=
  5.75E-13  2.58E-13  4.00E-13  2.43E-13  4.85E-13  1.86E-13  9.02E-13  6.21E-13
  3.04E-07  1.36E-06
 -2.7330E-01  1.6013E-01  1.6073E-01  1.6073E-01  2.5403E-01  2.5569E-01
  2.5569E-01  2.7561E-01  4.4191E-01  4.4544E-01
  prteigrs : nnsclo,ikpt=   50   26 max resid (incl. the buffer)=  1.35597E-06
 Non-SCF case, kpt   27 (  0.03571  0.00000  0.03571), residuals and eigenvalues=
  7.98E-13  4.58E-13  1.35E-13  7.28E-14  1.64E-13  1.25E-13  9.20E-13  5.25E-13
  1.87E-04  4.02E-06
 -2.7269E-01  1.5589E-01  1.5823E-01  1.5823E-01  2.5246E-01  2.5893E-01
  2.5893E-01  2.7973E-01  4.3891E-01  4.4611E-01
  prteigrs : nnsclo,ikpt=   50   27 max resid (incl. the buffer)=  1.86754E-04
 Non-SCF case, kpt   28 (  0.05357  0.00000  0.05357), residuals and eigenvalues=
  7.63E-13  3.00E-13  3.71E-13  4.38E-13  3.41E-13  8.20E-13  7.51E-13  6.59E-13
  9.53E-06  1.76E-05
 -2.7168E-01  1.4944E-01  1.5440E-01  1.5440E-01  2.4995E-01  2.6399E-01
  2.6399E-01  2.8590E-01  4.3115E-01  4.4735E-01
  prteigrs : nnsclo,ikpt=   50   28 max resid (incl. the buffer)=  1.75712E-05
 Non-SCF case, kpt   29 (  0.07143  0.00000  0.07143), residuals and eigenvalues=
  5.63E-13  5.11E-13  6.06E-13  2.31E-13  9.58E-13  3.72E-13  4.81E-13  4.33E-13
  8.99E-09  4.26E-04
 -2.7027E-01  1.4136E-01  1.4961E-01  1.4961E-01  2.4665E-01  2.7050E-01
  2.7050E-01  2.9334E-01  4.2232E-01  4.5074E-01
  prteigrs : nnsclo,ikpt=   50   29 max resid (incl. the buffer)=  4.25848E-04
 Non-SCF case, kpt   30 (  0.08929  0.00000  0.08929), residuals and eigenvalues=
  6.33E-13  8.40E-13  3.87E-13  2.68E-13  1.67E-13  6.91E-13  2.91E-13  3.99E-13
  1.41E-07  6.92E-04
 -2.6846E-01  1.3215E-01  1.4419E-01  1.4419E-01  2.4273E-01  2.7813E-01
  2.7813E-01  3.0123E-01  4.1311E-01  4.5344E-01
  prteigrs : nnsclo,ikpt=   50   30 max resid (incl. the buffer)=  6.91605E-04
 Non-SCF case, kpt   31 (  0.10714  0.00000  0.10714), residuals and eigenvalues=
  8.23E-13  4.89E-13  1.31E-13  1.42E-13  4.67E-13  3.69E-13  1.12E-13  3.26E-13
  8.86E-09  4.31E-05
 -2.6624E-01  1.2214E-01  1.3838E-01  1.3838E-01  2.3833E-01  2.8660E-01
  2.8660E-01  3.0862E-01  4.0456E-01  4.5348E-01
  prteigrs : nnsclo,ikpt=   50   31 max resid (incl. the buffer)=  4.31253E-05
 Non-SCF case, kpt   32 (  0.12500  0.00000  0.12500), residuals and eigenvalues=
  6.30E-13  2.93E-13  1.50E-13  1.49E-13  6.96E-13  1.94E-13  5.90E-13  3.54E-13
  1.45E-09  3.60E-05
 -2.6362E-01  1.1162E-01  1.3240E-01  1.3240E-01  2.3362E-01  2.9574E-01
  2.9574E-01  3.1429E-01  3.9812E-01  4.5629E-01
  prteigrs : nnsclo,ikpt=   50   32 max resid (incl. the buffer)=  3.60308E-05
 Non-SCF case, kpt   33 (  0.14286  0.00000  0.14286), residuals and eigenvalues=
  4.50E-13  4.70E-13  2.78E-13  2.61E-13  3.46E-13  7.62E-13  7.53E-13  7.38E-13
  2.46E-10  7.34E-06
 -2.6061E-01  1.0072E-01  1.2637E-01  1.2637E-01  2.2873E-01  3.0540E-01
  3.0540E-01  3.1678E-01  3.9529E-01  4.5960E-01
  prteigrs : nnsclo,ikpt=   50   33 max resid (incl. the buffer)=  7.33786E-06
 Non-SCF case, kpt   34 (  0.16071  0.00000  0.16071), residuals and eigenvalues=
  5.35E-13  7.11E-13  9.39E-13  6.57E-13  9.18E-13  1.35E-13  7.77E-13  2.26E-13
  1.59E-10  2.21E-06
 -2.5720E-01  8.9571E-02  1.2038E-01  1.2038E-01  2.2377E-01  3.1514E-01
  3.1546E-01  3.1546E-01  3.9709E-01  4.6339E-01
  prteigrs : nnsclo,ikpt=   50   34 max resid (incl. the buffer)=  2.21138E-06
 Non-SCF case, kpt   35 (  0.17857  0.00000  0.17857), residuals and eigenvalues=
  4.49E-13  5.59E-13  2.91E-13  7.12E-13  6.58E-13  4.37E-13  3.12E-13  8.15E-13
  1.09E-12  3.15E-08
 -2.5340E-01  7.8238E-02  1.1451E-01  1.1451E-01  2.1883E-01  3.0977E-01
  3.2587E-01  3.2587E-01  4.0314E-01  4.6763E-01
  prteigrs : nnsclo,ikpt=   50   35 max resid (incl. the buffer)=  3.15160E-08
 Non-SCF case, kpt   36 (  0.19643  0.00000  0.19643), residuals and eigenvalues=
  9.25E-13  3.92E-13  4.48E-13  4.94E-13  2.32E-13  4.32E-13  2.72E-13  2.34E-13
  1.74E-10  8.17E-08
 -2.4921E-01  6.6784E-02  1.0882E-01  1.0882E-01  2.1401E-01  3.0196E-01
  3.3654E-01  3.3654E-01  4.1224E-01  4.7226E-01
  prteigrs : nnsclo,ikpt=   50   36 max resid (incl. the buffer)=  8.17174E-08
 Non-SCF case, kpt   37 (  0.21429  0.00000  0.21429), residuals and eigenvalues=
  3.27E-13  8.16E-13  8.09E-13  4.80E-13  2.93E-13  7.95E-13  3.29E-13  3.38E-13
  1.72E-11  7.56E-09
 -2.4464E-01  5.5247E-02  1.0335E-01  1.0335E-01  2.0936E-01  2.9286E-01
  3.4747E-01  3.4747E-01  4.2328E-01  4.7742E-01
  prteigrs : nnsclo,ikpt=   50   37 max resid (incl. the buffer)=  7.56341E-09
 Non-SCF case, kpt   38 (  0.23214  0.00000  0.23214), residuals and eigenvalues=
  9.93E-13  2.45E-13  8.24E-13  5.38E-13  2.86E-13  8.47E-13  3.50E-13  4.41E-13
  2.36E-11  3.08E-09
 -2.3968E-01  4.3655E-02  9.8116E-02  9.8116E-02  2.0493E-01  2.8320E-01
  3.5857E-01  3.5857E-01  4.3545E-01  4.8300E-01
  prteigrs : nnsclo,ikpt=   50   38 max resid (incl. the buffer)=  3.07849E-09
 Non-SCF case, kpt   39 (  0.25000  0.00000  0.25000), residuals and eigenvalues=
  9.69E-13  3.50E-13  3.53E-13  3.53E-13  2.93E-13  9.23E-13  5.09E-13  5.97E-13
  2.82E-11  1.80E-09
 -2.3434E-01  3.2031E-02  9.3154E-02  9.3154E-02  2.0078E-01  2.7344E-01
  3.6984E-01  3.6984E-01  4.4835E-01  4.8902E-01
  prteigrs : nnsclo,ikpt=   50   39 max resid (incl. the buffer)=  1.80284E-09
 Non-SCF case, kpt   40 (  0.26786  0.00000  0.26786), residuals and eigenvalues=
  9.99E-13  4.63E-13  4.03E-13  3.60E-13  3.12E-13  1.57E-13  6.91E-13  7.67E-13
  3.02E-11  1.20E-09
 -2.2863E-01  2.0396E-02  8.8479E-02  8.8479E-02  1.9693E-01  2.6384E-01
  3.8125E-01  3.8125E-01  4.6170E-01  4.9548E-01
  prteigrs : nnsclo,ikpt=   50   40 max resid (incl. the buffer)=  1.20389E-09
 Non-SCF case, kpt   41 (  0.28571  0.00000  0.28571), residuals and eigenvalues=
  9.61E-13  4.59E-13  5.73E-13  4.95E-13  6.89E-13  4.45E-13  5.93E-13  6.82E-13
  3.40E-11  5.33E-10
 -2.2256E-01  8.7661E-03  8.4109E-02  8.4109E-02  1.9342E-01  2.5455E-01
  3.9279E-01  3.9279E-01  4.7530E-01  5.0238E-01
  prteigrs : nnsclo,ikpt=   50   41 max resid (incl. the buffer)=  5.32880E-10
 Non-SCF case, kpt   42 (  0.30357  0.00000  0.30357), residuals and eigenvalues=
  1.79E-13  3.81E-13  6.71E-13  2.96E-13  9.90E-13  4.79E-13  5.53E-13  2.13E-13
  5.87E-11  8.99E-10
 -2.1611E-01 -2.8360E-03  8.0052E-02  8.0052E-02  1.9027E-01  2.4569E-01
  4.0447E-01  4.0447E-01  4.8905E-01  5.0974E-01
  prteigrs : nnsclo,ikpt=   50   42 max resid (incl. the buffer)=  8.98647E-10
 Non-SCF case, kpt   43 (  0.32143  0.00000  0.32143), residuals and eigenvalues=
  1.93E-13  3.28E-13  6.24E-13  3.09E-13  9.98E-13  4.72E-13  8.15E-13  4.51E-13
  1.29E-10  7.79E-10
 -2.0931E-01 -1.4394E-02  7.6324E-02  7.6324E-02  1.8752E-01  2.3733E-01
  4.1624E-01  4.1624E-01  5.0282E-01  5.1753E-01
  prteigrs : nnsclo,ikpt=   50   43 max resid (incl. the buffer)=  7.78841E-10
 Non-SCF case, kpt   44 (  0.33929  0.00000  0.33929), residuals and eigenvalues=
  2.01E-13  2.56E-13  5.51E-13  9.62E-13  1.46E-13  4.40E-13  5.35E-13  7.38E-13
  6.75E-10  1.84E-09
 -2.0217E-01 -2.5891E-02  7.2930E-02  7.2930E-02  1.8517E-01  2.2950E-01
  4.2810E-01  4.2810E-01  5.1656E-01  5.2574E-01
  prteigrs : nnsclo,ikpt=   50   44 max resid (incl. the buffer)=  1.83937E-09
 Non-SCF case, kpt   45 (  0.35714  0.00000  0.35714), residuals and eigenvalues=
  1.87E-13  1.97E-13  4.75E-13  7.80E-13  1.79E-13  4.22E-13  7.63E-13  4.15E-13
  8.04E-11  1.51E-10
 -1.9467E-01 -3.7308E-02  6.9878E-02  6.9878E-02  1.8326E-01  2.2224E-01
  4.4006E-01  4.4006E-01  5.3017E-01  5.3440E-01
  prteigrs : nnsclo,ikpt=   50   45 max resid (incl. the buffer)=  1.50836E-10
 Non-SCF case, kpt   46 (  0.37500  0.00000  0.37500), residuals and eigenvalues=
  4.01E-13  4.82E-13  6.06E-13  6.23E-13  3.33E-13  3.71E-13  6.88E-13  6.52E-13
  5.92E-10  1.65E-09
 -1.8685E-01 -4.8627E-02  6.7173E-02  6.7173E-02  1.8179E-01  2.1556E-01
  4.5209E-01  4.5209E-01  5.4349E-01  5.4362E-01
  prteigrs : nnsclo,ikpt=   50   46 max resid (incl. the buffer)=  1.65348E-09
 Non-SCF case, kpt   47 (  0.39286  0.00000  0.39286), residuals and eigenvalues=
  7.47E-13  9.34E-13  5.76E-13  2.66E-13  9.79E-13  5.43E-13  5.76E-13  2.55E-13
  2.56E-09  1.87E-09
 -1.7870E-01 -5.9829E-02  6.4820E-02  6.4820E-02  1.8078E-01  2.0947E-01
  4.6417E-01  4.6417E-01  5.5302E-01  5.5686E-01
  prteigrs : nnsclo,ikpt=   50   47 max resid (incl. the buffer)=  2.56243E-09
 Non-SCF case, kpt   48 (  0.41071  0.00000  0.41071), residuals and eigenvalues=
  3.69E-13  7.05E-13  4.63E-13  8.86E-13  5.57E-13  3.13E-13  5.90E-13  4.81E-13
  8.31E-08  1.46E-07
 -1.7023E-01 -7.0895E-02  6.2823E-02  6.2823E-02  1.8026E-01  2.0397E-01
  4.7626E-01  4.7626E-01  5.6297E-01  5.6978E-01
  prteigrs : nnsclo,ikpt=   50   48 max resid (incl. the buffer)=  1.46073E-07
 Non-SCF case, kpt   49 (  0.42857  0.00000  0.42857), residuals and eigenvalues=
  8.07E-13  5.47E-13  3.06E-13  7.27E-13  4.48E-13  2.02E-13  6.66E-13  5.16E-13
  2.25E-06  2.97E-05
 -1.6146E-01 -8.1807E-02  6.1186E-02  6.1186E-02  1.8022E-01  1.9907E-01
  4.8830E-01  4.8830E-01  5.7337E-01  5.8255E-01
  prteigrs : nnsclo,ikpt=   50   49 max resid (incl. the buffer)=  2.97137E-05
 Non-SCF case, kpt   50 (  0.44643  0.00000  0.44643), residuals and eigenvalues=
  9.02E-13  4.43E-13  4.09E-13  7.05E-13  4.61E-13  1.81E-13  7.33E-13  7.15E-13
  1.75E-05  4.90E-06
 -1.5239E-01 -9.2545E-02  5.9909E-02  5.9909E-02  1.8068E-01  1.9475E-01
  5.0011E-01  5.0011E-01  5.8491E-01  5.8686E-01
  prteigrs : nnsclo,ikpt=   50   50 max resid (incl. the buffer)=  1.75250E-05
 Non-SCF case, kpt   51 (  0.46429  0.00000  0.46429), residuals and eigenvalues=
  7.85E-13  2.22E-13  2.57E-13  4.07E-13  4.01E-13  8.00E-13  9.72E-13  9.57E-13
  4.56E-08  8.55E-06
 -1.4304E-01 -1.0309E-01  5.8996E-02  5.8996E-02  1.8166E-01  1.9100E-01
  5.1129E-01  5.1129E-01  5.7531E-01  5.7534E-01
  prteigrs : nnsclo,ikpt=   50   51 max resid (incl. the buffer)=  8.55248E-06
 Non-SCF case, kpt   52 (  0.48214  0.00000  0.48214), residuals and eigenvalues=
  5.64E-13  2.47E-13  1.95E-13  3.82E-13  2.33E-13  3.51E-13  6.12E-13  3.69E-13
  2.96E-10  5.44E-08
 -1.3342E-01 -1.1343E-01  5.8448E-02  5.8448E-02  1.8317E-01  1.8784E-01
  5.2065E-01  5.2065E-01  5.6574E-01  5.6574E-01
  prteigrs : nnsclo,ikpt=   50   52 max resid (incl. the buffer)=  5.44331E-08
 Non-SCF case, kpt   53 (  0.50000  0.00000  0.50000), residuals and eigenvalues=
  2.13E-13  2.08E-13  3.90E-13  1.61E-13  5.28E-13  4.40E-13  6.96E-13  7.93E-13
  7.28E-12  4.13E-11
 -1.2355E-01 -1.2355E-01  5.8264E-02  5.8264E-02  1.8522E-01  1.8522E-01
  5.2483E-01  5.2483E-01  5.6144E-01  5.6144E-01
  prteigrs : nnsclo,ikpt=   50   53 max resid (incl. the buffer)=  4.13493E-11
 Non-SCF case, kpt   54 (  0.51250  0.02500  0.51250), residuals and eigenvalues=
  2.71E-13  1.46E-13  1.41E-13  1.64E-13  1.87E-13  2.36E-13  3.69E-13  9.45E-13
  6.99E-12  1.95E-11
 -1.2363E-01 -1.2333E-01  5.6883E-02  5.8424E-02  1.8542E-01  1.8727E-01
  5.2276E-01  5.2361E-01  5.5798E-01  5.5900E-01
  prteigrs : nnsclo,ikpt=   50   54 max resid (incl. the buffer)=  1.94605E-11
 Non-SCF case, kpt   55 (  0.52500  0.05000  0.52500), residuals and eigenvalues=
  1.57E-13  1.33E-13  4.29E-13  9.46E-13  2.92E-13  1.65E-13  4.74E-13  8.90E-13
  7.46E-12  4.64E-12
 -1.2389E-01 -1.2269E-01  5.3016E-02  5.8901E-02  1.8597E-01  1.9312E-01
  5.1706E-01  5.2011E-01  5.4924E-01  5.5262E-01
  prteigrs : nnsclo,ikpt=   50   55 max resid (incl. the buffer)=  7.45785E-12
 Non-SCF case, kpt   56 (  0.53750  0.07500  0.53750), residuals and eigenvalues=
  1.38E-13  1.93E-13  2.08E-13  1.33E-13  1.16E-13  1.30E-13  4.54E-13  5.92E-13
  2.37E-12  6.52E-13
 -1.2435E-01 -1.2162E-01  4.7332E-02  5.9695E-02  1.8689E-01  2.0214E-01
  5.0880E-01  5.1473E-01  5.3789E-01  5.4395E-01
  prteigrs : nnsclo,ikpt=   50   56 max resid (incl. the buffer)=  2.36961E-12
 Non-SCF case, kpt   57 (  0.55000  0.10000  0.55000), residuals and eigenvalues=
  1.88E-13  1.91E-13  2.96E-13  1.39E-13  8.62E-13  1.91E-13  8.37E-13  8.43E-13
  2.40E-12  3.05E-12
 -1.2506E-01 -1.2012E-01  4.0583E-02  6.0803E-02  1.8817E-01  2.1361E-01
  4.9899E-01  5.0797E-01  5.2543E-01  5.3414E-01
  prteigrs : nnsclo,ikpt=   50   57 max resid (incl. the buffer)=  3.05456E-12
 Non-SCF case, kpt   58 (  0.56250  0.12500  0.56250), residuals and eigenvalues=
  2.44E-13  1.61E-13  3.55E-13  9.68E-13  5.26E-13  3.76E-13  4.57E-13  8.13E-13
  8.14E-12  1.48E-11
 -1.2609E-01 -1.1819E-01  3.3417E-02  6.2221E-02  1.8982E-01  2.2695E-01
  4.8827E-01  5.0025E-01  5.1257E-01  5.2380E-01
  prteigrs : nnsclo,ikpt=   50   58 max resid (incl. the buffer)=  1.48265E-11
 Non-SCF case, kpt   59 (  0.57500  0.15000  0.57500), residuals and eigenvalues=
  1.62E-13  1.17E-13  5.93E-13  2.28E-13  4.02E-13  8.02E-13  6.99E-13  3.90E-13
  8.39E-12  1.31E-12
 -1.2750E-01 -1.1583E-01  2.6341E-02  6.3944E-02  1.9182E-01  2.4174E-01
  4.7709E-01  4.9190E-01  4.9966E-01  5.1324E-01
  prteigrs : nnsclo,ikpt=   50   59 max resid (incl. the buffer)=  8.38850E-12
 Non-SCF case, kpt   60 (  0.58750  0.17500  0.58750), residuals and eigenvalues=
  2.24E-13  9.07E-13  4.78E-13  2.61E-13  3.71E-13  4.87E-13  2.68E-13  4.58E-13
  1.08E-12  2.46E-13
 -1.2938E-01 -1.1305E-01  1.9736E-02  6.5967E-02  1.9417E-01  2.5761E-01
  4.6571E-01  4.8314E-01  4.8687E-01  5.0268E-01
  prteigrs : nnsclo,ikpt=   50   60 max resid (incl. the buffer)=  1.07973E-12
 Non-SCF case, kpt   61 (  0.60000  0.20000  0.60000), residuals and eigenvalues=
  3.21E-13  7.59E-13  4.05E-13  3.02E-13  3.78E-13  3.33E-13  7.51E-13  6.65E-13
  8.36E-13  8.39E-13
 -1.3182E-01 -1.0985E-01  1.3887E-02  6.8281E-02  1.9686E-01  2.7438E-01
  4.5428E-01  4.7417E-01  4.7432E-01  4.9224E-01
 Non-SCF case, kpt   62 (  0.61250  0.22500  0.61250), residuals and eigenvalues=
  1.79E-13  9.49E-13  8.00E-13  5.29E-13  6.71E-13  6.23E-13  9.51E-13  5.92E-13
  5.79E-13  7.27E-13
 -1.3487E-01 -1.0622E-01  9.0038E-03  7.0879E-02  1.9989E-01  2.9187E-01
  4.4293E-01  4.6209E-01  4.6512E-01  4.8201E-01
 Non-SCF case, kpt   63 (  0.62500  0.25000  0.62500), residuals and eigenvalues=
  6.60E-13  9.10E-13  7.03E-13  2.01E-13  9.14E-13  6.88E-13  5.29E-13  2.22E-13
  1.90E-13  5.62E-13
 -1.3858E-01 -1.0216E-01  5.2242E-03  7.3748E-02  2.0323E-01  3.0991E-01
  4.3172E-01  4.5019E-01  4.5608E-01  4.7202E-01


--- !ResultsGS
iteration_state: {dtset: 2, }
comment   : Summary of ground state results
lattice_vectors:
- [  6.3285005,   0.0000000,   3.6537615, ]
- [  2.1095002,   5.9665675,   3.6537615, ]
- [  0.0000000,   0.0000000,   7.3075230, ]
lattice_lengths: [   7.30752,    7.30752,    7.30752, ]
lattice_angles: [ 60.000,  60.000,  60.000, ] # degrees, (23, 13, 12)
lattice_volume:   2.7592787E+02
convergence: {deltae:  0.000E+00, res2:  0.000E+00, residm:  9.988E-13, diffor:  0.000E+00, }
etotal    :  -8.47163832E+00
entropy   :   0.00000000E+00
fermie    :   1.58559501E-01
cartesian_stress_tensor: null
pressure_GPa: null
xred      :
- [  0.0000E+00,   0.0000E+00,   0.0000E+00, Si]
- [  2.5000E-01,   2.5000E-01,   2.5000E-01, Si]
cartesian_forces: null
force_length_stats: {min: null, max: null, mean: null, }
...

 Integrated electronic density in atomic spheres:
 ------------------------------------------------
 Atom  Sphere_radius  Integrated_density
    1        2.00000          1.72420921
    2        2.00000          1.75829477
================================================================================

 ----iterations are completed or convergence reached----

 Mean square residual over all n,k,spin=   48.469E-14; max=  99.883E-14
 reduced coordinates (array xred) for    2 atoms
       0.000000000000      0.000000000000      0.000000000000
       0.250000000000      0.250000000000      0.250000000000

 cartesian coordinates (angstrom) at end:
    1      0.00000000000000     0.00000000000000     0.00000000000000
    2      1.11629941402078     0.78934288549380     1.93348730154123
 length scales=  1.000000000000  1.000000000000  1.000000000000 bohr
              =  0.529177208590  0.529177208590  0.529177208590 angstroms
 prteigrs : about to open file siggao_DS2_EIG
 Eigenvalues (   eV  ) for nkpt=  63  k points:
 kpt#   1, nband= 10, wtk=  1.00000, kpt= -0.5000 -0.5000 -0.5000 (reduced coord)
  -5.14828   -2.51396    3.21558    3.21558    5.78723    7.70388    7.70388   11.88482
  14.87988   14.88120
 kpt#   2, nband= 10, wtk=  1.00000, kpt= -0.4792 -0.4792 -0.4792 (reduced coord)
  -5.17256   -2.47905    3.21865    3.21865    5.79085    7.70741    7.70741   11.89051
  14.67911   14.68492
 kpt#   3, nband= 10, wtk=  1.00000, kpt= -0.4583 -0.4583 -0.4583 (reduced coord)
  -5.24171   -2.37809    3.22792    3.22792    5.80171    7.71789    7.71789   11.90705
  14.32442   14.32520
 kpt#   4, nband= 10, wtk=  1.00000, kpt= -0.4375 -0.4375 -0.4375 (reduced coord)
  -5.34656   -2.22029    3.24328    3.24328    5.81971    7.73464    7.73464   11.93340
  13.95167   13.95180
 kpt#   5, nband= 10, wtk=  1.00000, kpt= -0.4167 -0.4167 -0.4167 (reduced coord)
  -5.47638   -2.01646    3.26477    3.26477    5.84492    7.75680    7.75680   11.96767
  13.58661   13.58662
 kpt#   6, nband= 10, wtk=  1.00000, kpt= -0.3958 -0.3958 -0.3958 (reduced coord)
  -5.62168   -1.77621    3.29237    3.29237    5.87721    7.78310    7.78310   12.00592
  13.23702   13.23702
 kpt#   7, nband= 10, wtk=  1.00000, kpt= -0.3750 -0.3750 -0.3750 (reduced coord)
  -5.77514   -1.50705    3.32602    3.32602    5.91649    7.81150    7.81150   12.04052
  12.90709   12.90709
 kpt#   8, nband= 10, wtk=  1.00000, kpt= -0.3542 -0.3542 -0.3542 (reduced coord)
  -5.93143   -1.21452    3.36565    3.36565    5.96260    7.83969    7.83969   12.05620
  12.60029   12.60029
 kpt#   9, nband= 10, wtk=  1.00000, kpt= -0.3333 -0.3333 -0.3333 (reduced coord)
  -6.08674   -0.90265    3.41119    3.41119    6.01539    7.86470    7.86470   12.02354
  12.32073   12.32073
 kpt#  10, nband= 10, wtk=  1.00000, kpt= -0.3125 -0.3125 -0.3125 (reduced coord)
  -6.23841   -0.57448    3.46250    3.46250    6.07458    7.88299    7.88299   11.90298
  12.07209   12.07209
 kpt#  11, nband= 10, wtk=  1.00000, kpt= -0.2917 -0.2917 -0.2917 (reduced coord)
  -6.38452   -0.23233    3.51936    3.51936    6.13985    7.89061    7.89061   11.68213
  11.85850   11.85850
 kpt#  12, nband= 10, wtk=  1.00000, kpt= -0.2708 -0.2708 -0.2708 (reduced coord)
  -6.52367    0.12189    3.58152    3.58152    6.21075    7.88357    7.88357   11.39042
  11.68401   11.68401
 kpt#  13, nband= 10, wtk=  1.00000, kpt= -0.2500 -0.2500 -0.2500 (reduced coord)
  -6.65484    0.48653    3.64863    3.64863    6.28685    7.85864    7.85864   11.05999
  11.55222   11.55222
 kpt#  14, nband= 10, wtk=  1.00000, kpt= -0.2292 -0.2292 -0.2292 (reduced coord)
  -6.77725    0.85996    3.72013    3.72013    6.36711    7.81319    7.81319   10.70922
  11.46411   11.46411
 kpt#  15, nband= 10, wtk=  1.00000, kpt= -0.2083 -0.2083 -0.2083 (reduced coord)
  -6.89031    1.24069    3.79543    3.79543    6.45073    7.74743    7.74743   10.34764
  11.42094   11.42094
 kpt#  16, nband= 10, wtk=  1.00000, kpt= -0.1875 -0.1875 -0.1875 (reduced coord)
  -6.99356    1.62676    3.87375    3.87375    6.53657    7.66329    7.66329    9.97952
  11.41989   11.41989
 kpt#  17, nband= 10, wtk=  1.00000, kpt= -0.1667 -0.1667 -0.1667 (reduced coord)
  -7.08666    2.01606    3.95374    3.95374    6.62269    7.56445    7.56445    9.60794
  11.45606   11.45606
 kpt#  18, nband= 10, wtk=  1.00000, kpt= -0.1458 -0.1458 -0.1458 (reduced coord)
  -7.16932    2.40582    4.03405    4.03405    6.70720    7.45622    7.45622    9.23642
  11.52359   11.52359
 kpt#  19, nband= 10, wtk=  1.00000, kpt= -0.1250 -0.1250 -0.1250 (reduced coord)
  -7.24134    2.79227    4.11282    4.11282    6.78734    7.34453    7.34453    8.86866
  11.61562   11.61562
 kpt#  20, nband= 10, wtk=  1.00000, kpt= -0.1042 -0.1042 -0.1042 (reduced coord)
  -7.30252    3.16984    4.18773    4.18773    6.85936    7.23537    7.23537    8.51084
  11.72244   11.72244
 kpt#  21, nband= 10, wtk=  1.00000, kpt= -0.0833 -0.0833 -0.0833 (reduced coord)
  -7.35275    3.53025    4.25614    4.25614    6.91826    7.13497    7.13497    8.17353
  11.83648   11.83675
 kpt#  22, nband= 10, wtk=  1.00000, kpt= -0.0625 -0.0625 -0.0625 (reduced coord)
  -7.39191    3.85961    4.31444    4.31444    6.95620    7.04901    7.04901    7.87422
  11.94402   11.94436
 kpt#  23, nband= 10, wtk=  1.00000, kpt= -0.0417 -0.0417 -0.0417 (reduced coord)
  -7.41994    4.13654    4.35937    4.35937    6.96410    6.98292    6.98292    7.64114
  12.03439   12.09620
 kpt#  24, nband= 10, wtk=  1.00000, kpt= -0.0208 -0.0208 -0.0208 (reduced coord)
  -7.43678    4.32795    4.38787    4.38787    6.94123    6.94123    6.94315    7.50266
  12.02560   12.09511
 kpt#  25, nband= 10, wtk=  1.00000, kpt=  0.0000  0.0000  0.0000 (reduced coord)
  -7.44239    4.39765    4.39765    4.39765    6.92697    6.92697    6.92697    7.46002
  12.03060   12.11661
 kpt#  26, nband= 10, wtk=  1.00000, kpt=  0.0179  0.0000  0.0179 (reduced coord)
  -7.43689    4.35723    4.37380    4.37380    6.91242    6.95755    6.95755    7.49968
  12.02509   12.12099
 kpt#  27, nband= 10, wtk=  1.00000, kpt=  0.0357  0.0000  0.0357 (reduced coord)
  -7.42039    4.24203    4.30561    4.30561    6.86973    7.04589    7.04589    7.61186
  11.94346   12.13926
 kpt#  28, nband= 10, wtk=  1.00000, kpt=  0.0536  0.0000  0.0536 (reduced coord)
  -7.39290    4.06649    4.20146    4.20146    6.80160    7.18360    7.18360    7.77964
  11.73210   12.17303
 kpt#  29, nband= 10, wtk=  1.00000, kpt=  0.0714  0.0000  0.0714 (reduced coord)
  -7.35445    3.84658    4.07105    4.07105    6.71178    7.36067    7.36067    7.98209
  11.49183   12.26512
 kpt#  30, nband= 10, wtk=  1.00000, kpt=  0.0893  0.0000  0.0893 (reduced coord)
  -7.30505    3.59586    3.92354    3.92354    6.60491    7.56818    7.56818    8.19687
  11.24124   12.33866
 kpt#  31, nband= 10, wtk=  1.00000, kpt=  0.1071  0.0000  0.1071 (reduced coord)
  -7.24475    3.32368    3.76563    3.76563    6.48518    7.79875    7.79875    8.39811
  11.00864   12.33982
 kpt#  32, nband= 10, wtk=  1.00000, kpt=  0.1250  0.0000  0.1250 (reduced coord)
  -7.17358    3.03723    3.60281    3.60281    6.35708    8.04746    8.04746    8.55236
  10.83333   12.41625
 kpt#  33, nband= 10, wtk=  1.00000, kpt=  0.1429  0.0000  0.1429 (reduced coord)
  -7.09161    2.74077    3.43862    3.43862    6.22405    8.31024    8.31024    8.61996
  10.75636   12.50629
 kpt#  34, nband= 10, wtk=  1.00000, kpt=  0.1607  0.0000  0.1607 (reduced coord)
  -6.99888    2.43736    3.27577    3.27577    6.08919    8.57532    8.58422    8.58422
  10.80524   12.60943
 kpt#  35, nband= 10, wtk=  1.00000, kpt=  0.1786  0.0000  0.1786 (reduced coord)
  -6.89549    2.12896    3.11610    3.11610    5.95477    8.42940    8.86726    8.86726
  10.96996   12.72478
 kpt#  36, nband= 10, wtk=  1.00000, kpt=  0.1964  0.0000  0.1964 (reduced coord)
  -6.78148    1.81729    2.96123    2.96123    5.82350    8.21688    9.15772    9.15772
  11.21761   12.85094
 kpt#  37, nband= 10, wtk=  1.00000, kpt=  0.2143  0.0000  0.2143 (reduced coord)
  -6.65697    1.50335    2.81223    2.81223    5.69698    7.96913    9.45513    9.45513
  11.51791   12.99122
 kpt#  38, nband= 10, wtk=  1.00000, kpt=  0.2321  0.0000  0.2321 (reduced coord)
  -6.52205    1.18790    2.66987    2.66987    5.57653    7.70636    9.75719    9.75719
  11.84928   13.14297
 kpt#  39, nband= 10, wtk=  1.00000, kpt=  0.2500  0.0000  0.2500 (reduced coord)
  -6.37683    0.87159    2.53484    2.53484    5.46342    7.44070   10.06379   10.06379
  12.20029   13.30678
 kpt#  40, nband= 10, wtk=  1.00000, kpt=  0.2679  0.0000  0.2679 (reduced coord)
  -6.22145    0.55499    2.40765    2.40765    5.35867    7.17937   10.37436   10.37436
  12.56341   13.48262
 kpt#  41, nband= 10, wtk=  1.00000, kpt=  0.2857  0.0000  0.2857 (reduced coord)
  -6.05603    0.23854    2.28871    2.28871    5.26317    6.92657   10.68838   10.68838
  12.93354   13.67045
 kpt#  42, nband= 10, wtk=  1.00000, kpt=  0.3036  0.0000  0.3036 (reduced coord)
  -5.88074   -0.07717    2.17833    2.17833    5.17758    6.68553   11.00631   11.00631
  13.30770   13.87082
 kpt#  43, nband= 10, wtk=  1.00000, kpt=  0.3214  0.0000  0.3214 (reduced coord)
  -5.69574   -0.39169    2.07687    2.07687    5.10261    6.45798   11.32648   11.32648
  13.68256   14.08257
 kpt#  44, nband= 10, wtk=  1.00000, kpt=  0.3393  0.0000  0.3393 (reduced coord)
  -5.50122   -0.70453    1.98452    1.98452    5.03881    6.24503   11.64931   11.64931
  14.05619   14.30624
 kpt#  45, nband= 10, wtk=  1.00000, kpt=  0.3571  0.0000  0.3571 (reduced coord)
  -5.29737   -1.01521    1.90147    1.90147    4.98671    6.04744   11.97454   11.97454
  14.42676   14.54179
 kpt#  46, nband= 10, wtk=  1.00000, kpt=  0.3750  0.0000  0.3750 (reduced coord)
  -5.08442   -1.32321    1.82787    1.82787    4.94676    5.86566   12.30188   12.30188
  14.78917   14.79261
 kpt#  47, nband= 10, wtk=  1.00000, kpt=  0.3929  0.0000  0.3929 (reduced coord)
  -4.86261   -1.62803    1.76385    1.76385    4.91939    5.70001   12.63067   12.63067
  15.04834   15.15281
 kpt#  48, nband= 10, wtk=  1.00000, kpt=  0.4107  0.0000  0.4107 (reduced coord)
  -4.63220   -1.92915    1.70951    1.70951    4.90501    5.55040   12.95980   12.95980
  15.31925   15.50453
 kpt#  49, nband= 10, wtk=  1.00000, kpt=  0.4286  0.0000  0.4286 (reduced coord)
  -4.39347   -2.22607    1.66494    1.66494    4.90398    5.41689   13.28729   13.28729
  15.60212   15.85188
 kpt#  50, nband= 10, wtk=  1.00000, kpt=  0.4464  0.0000  0.4464 (reduced coord)
  -4.14674   -2.51828    1.63021    1.63021    4.91667    5.29935   13.60868   13.60868
  15.91620   15.96924
 kpt#  51, nband= 10, wtk=  1.00000, kpt=  0.4643  0.0000  0.4643 (reduced coord)
  -3.89233   -2.80530    1.60536    1.60536    4.94325    5.19745   13.91286   13.91286
  15.65506   15.65591
 kpt#  52, nband= 10, wtk=  1.00000, kpt=  0.4821  0.0000  0.4821 (reduced coord)
  -3.63058   -3.08664    1.59044    1.59044    4.98441    5.11127   14.16751   14.16751
  15.39466   15.39466
 kpt#  53, nband= 10, wtk=  1.00000, kpt=  0.5000  0.0000  0.5000 (reduced coord)
  -3.36190   -3.36190    1.58544    1.58544    5.04021    5.04021   14.28134   14.28134
  15.27767   15.27767
 kpt#  54, nband= 10, wtk=  1.00000, kpt=  0.5125  0.0250  0.5125 (reduced coord)
  -3.36414   -3.35605    1.54787    1.58979    5.04541    5.09599   14.22502   14.24828
  15.18347   15.21116
 kpt#  55, nband= 10, wtk=  1.00000, kpt=  0.5250  0.0500  0.5250 (reduced coord)
  -3.37118   -3.33854    1.44264    1.60278    5.06046    5.25512   14.06983   14.15287
  14.94570   15.03759
 kpt#  56, nband= 10, wtk=  1.00000, kpt=  0.5375  0.0750  0.5375 (reduced coord)
  -3.38376   -3.30938    1.28797    1.62438    5.08544    5.50050   13.84529   14.00654
  14.63662   14.80177
 kpt#  57, nband= 10, wtk=  1.00000, kpt=  0.5500  0.1000  0.5500 (reduced coord)
  -3.40313   -3.26856    1.10431    1.65452    5.12041    5.81275   13.57808   13.82266
  14.29755   14.53480
 kpt#  58, nband= 10, wtk=  1.00000, kpt=  0.5625  0.1250  0.5625 (reduced coord)
  -3.43101   -3.21610    0.90933    1.69311    5.16520    6.17573   13.28659   13.61256
  13.94772   14.25323
 kpt#  59, nband= 10, wtk=  1.00000, kpt=  0.5750  0.1500  0.5750 (reduced coord)
  -3.46943   -3.15202    0.71678    1.74001    5.21968    6.57800   12.98236   13.38517
  13.59641   13.96610
 kpt#  60, nband= 10, wtk=  1.00000, kpt=  0.5875  0.1750  0.5875 (reduced coord)
  -3.52069   -3.07634    0.53704    1.79505    5.28365    7.01002   12.67249   13.14699
  13.24850   13.67872
 kpt#  61, nband= 10, wtk=  1.00000, kpt=  0.6000  0.2000  0.6000 (reduced coord)
  -3.58698   -2.98909    0.37789    1.85803    5.35692    7.46618   12.36158   12.90290
  12.90692   13.39451
 kpt#  62, nband= 10, wtk=  1.00000, kpt=  0.6125  0.2250  0.6125 (reduced coord)
  -3.67005   -2.89029    0.24501    1.92871    5.43920    7.94211   12.05268   12.57404
  12.65656   13.11619
 kpt#  63, nband= 10, wtk=  1.00000, kpt=  0.6250  0.2500  0.6250 (reduced coord)
  -3.77101   -2.78000    0.14216    2.00680    5.53010    8.43315   11.74771   12.25042
  12.41044   12.84440

== END DATASET(S) ==============================================================
================================================================================
  
 -outvars: echo values of variables after computation  --------
            acell      1.0000000000E+00  1.0000000000E+00  1.0000000000E+00 Bohr
              amu      2.80855000E+01
      chksymbreak           0
           diemac      1.50000000E+01
             ecut      1.50000000E+01 Hartree
           enunit1          0
           enunit2          1
           etotal1    -8.4716383182E+00
            fcart1     1.3615333808E-27  2.4068737158E-28  0.0000000000E+00
                      -1.3615333808E-27 -2.4068737158E-28  0.0000000000E+00
-          fftalg         112
           getden1          0
           getden2         -1
             iscf1          7
             iscf2         -2
           istwfk2       0    0    0    0    0    0    0    0    0    0
                         0    0    0    0    0    0    0    0    0    0
                         0    0    0    0    2    0    0    0    0    0
                         0    0    0    0    0    0    0    0    0    0
                         0    0    0    0    0    0    0    0    0    0
                       outvar_i_n : Printing only first  50 k-points.
              ixc          23
           jdtset        1    2
              kpt1     6.25000000E-02  6.25000000E-02  6.25000000E-02
                       1.87500000E-01  6.25000000E-02  6.25000000E-02
                       3.12500000E-01  6.25000000E-02  6.25000000E-02
                       4.37500000E-01  6.25000000E-02  6.25000000E-02
                      -4.37500000E-01  6.25000000E-02  6.25000000E-02
                      -3.12500000E-01  6.25000000E-02  6.25000000E-02
                      -1.87500000E-01  6.25000000E-02  6.25000000E-02
                      -6.25000000E-02  6.25000000E-02  6.25000000E-02
                       1.87500000E-01  1.87500000E-01  6.25000000E-02
                       3.12500000E-01  1.87500000E-01  6.25000000E-02
                       4.37500000E-01  1.87500000E-01  6.25000000E-02
                      -4.37500000E-01  1.87500000E-01  6.25000000E-02
                      -3.12500000E-01  1.87500000E-01  6.25000000E-02
                      -1.87500000E-01  1.87500000E-01  6.25000000E-02
                      -6.25000000E-02  1.87500000E-01  6.25000000E-02
                       3.12500000E-01  3.12500000E-01  6.25000000E-02
                       4.37500000E-01  3.12500000E-01  6.25000000E-02
                      -4.37500000E-01  3.12500000E-01  6.25000000E-02
                      -3.12500000E-01  3.12500000E-01  6.25000000E-02
                      -1.87500000E-01  3.12500000E-01  6.25000000E-02
                      -6.25000000E-02  3.12500000E-01  6.25000000E-02
                       4.37500000E-01  4.37500000E-01  6.25000000E-02
                      -4.37500000E-01  4.37500000E-01  6.25000000E-02
                      -3.12500000E-01  4.37500000E-01  6.25000000E-02
                      -1.87500000E-01  4.37500000E-01  6.25000000E-02
                      -6.25000000E-02  4.37500000E-01  6.25000000E-02
                      -4.37500000E-01 -4.37500000E-01  6.25000000E-02
                      -3.12500000E-01 -4.37500000E-01  6.25000000E-02
                      -1.87500000E-01 -4.37500000E-01  6.25000000E-02
                      -3.12500000E-01 -3.12500000E-01  6.25000000E-02
                      -1.87500000E-01 -3.12500000E-01  6.25000000E-02
                      -1.87500000E-01 -1.87500000E-01  6.25000000E-02
                       1.87500000E-01  1.87500000E-01  1.87500000E-01
                       3.12500000E-01  1.87500000E-01  1.87500000E-01
                       4.37500000E-01  1.87500000E-01  1.87500000E-01
                      -4.37500000E-01  1.87500000E-01  1.87500000E-01
                      -3.12500000E-01  1.87500000E-01  1.87500000E-01
                      -1.87500000E-01  1.87500000E-01  1.87500000E-01
                       3.12500000E-01  3.12500000E-01  1.87500000E-01
                       4.37500000E-01  3.12500000E-01  1.87500000E-01
                      -4.37500000E-01  3.12500000E-01  1.87500000E-01
                      -3.12500000E-01  3.12500000E-01  1.87500000E-01
                      -1.87500000E-01  3.12500000E-01  1.87500000E-01
                       4.37500000E-01  4.37500000E-01  1.87500000E-01
                      -4.37500000E-01  4.37500000E-01  1.87500000E-01
                      -3.12500000E-01  4.37500000E-01  1.87500000E-01
                      -1.87500000E-01  4.37500000E-01  1.87500000E-01
                      -4.37500000E-01 -4.37500000E-01  1.87500000E-01
                      -3.12500000E-01 -4.37500000E-01  1.87500000E-01
                      -3.12500000E-01 -3.12500000E-01  1.87500000E-01
              kpt2    -5.00000000E-01 -5.00000000E-01 -5.00000000E-01
                      -4.79166667E-01 -4.79166667E-01 -4.79166667E-01
                      -4.58333333E-01 -4.58333333E-01 -4.58333333E-01
                      -4.37500000E-01 -4.37500000E-01 -4.37500000E-01
                      -4.16666667E-01 -4.16666667E-01 -4.16666667E-01
                      -3.95833333E-01 -3.95833333E-01 -3.95833333E-01
                      -3.75000000E-01 -3.75000000E-01 -3.75000000E-01
                      -3.54166667E-01 -3.54166667E-01 -3.54166667E-01
                      -3.33333333E-01 -3.33333333E-01 -3.33333333E-01
                      -3.12500000E-01 -3.12500000E-01 -3.12500000E-01
                      -2.91666667E-01 -2.91666667E-01 -2.91666667E-01
                      -2.70833333E-01 -2.70833333E-01 -2.70833333E-01
                      -2.50000000E-01 -2.50000000E-01 -2.50000000E-01
                      -2.29166667E-01 -2.29166667E-01 -2.29166667E-01
                      -2.08333333E-01 -2.08333333E-01 -2.08333333E-01
                      -1.87500000E-01 -1.87500000E-01 -1.87500000E-01
                      -1.66666667E-01 -1.66666667E-01 -1.66666667E-01
                      -1.45833333E-01 -1.45833333E-01 -1.45833333E-01
                      -1.25000000E-01 -1.25000000E-01 -1.25000000E-01
                      -1.04166667E-01 -1.04166667E-01 -1.04166667E-01
                      -8.33333333E-02 -8.33333333E-02 -8.33333333E-02
                      -6.25000000E-02 -6.25000000E-02 -6.25000000E-02
                      -4.16666667E-02 -4.16666667E-02 -4.16666667E-02
                      -2.08333333E-02 -2.08333333E-02 -2.08333333E-02
                       0.00000000E+00  0.00000000E+00  0.00000000E+00
                       1.78571429E-02  0.00000000E+00  1.78571429E-02
                       3.57142857E-02  0.00000000E+00  3.57142857E-02
                       5.35714286E-02  0.00000000E+00  5.35714286E-02
                       7.14285714E-02  0.00000000E+00  7.14285714E-02
                       8.92857143E-02  0.00000000E+00  8.92857143E-02
                       1.07142857E-01  0.00000000E+00  1.07142857E-01
                       1.25000000E-01  0.00000000E+00  1.25000000E-01
                       1.42857143E-01  0.00000000E+00  1.42857143E-01
                       1.60714286E-01  0.00000000E+00  1.60714286E-01
                       1.78571429E-01  0.00000000E+00  1.78571429E-01
                       1.96428571E-01  0.00000000E+00  1.96428571E-01
                       2.14285714E-01  0.00000000E+00  2.14285714E-01
                       2.32142857E-01  0.00000000E+00  2.32142857E-01
                       2.50000000E-01  0.00000000E+00  2.50000000E-01
                       2.67857143E-01  0.00000000E+00  2.67857143E-01
                       2.85714286E-01  0.00000000E+00  2.85714286E-01
                       3.03571429E-01  0.00000000E+00  3.03571429E-01
                       3.21428571E-01  0.00000000E+00  3.21428571E-01
                       3.39285714E-01  0.00000000E+00  3.39285714E-01
                       3.57142857E-01  0.00000000E+00  3.57142857E-01
                       3.75000000E-01  0.00000000E+00  3.75000000E-01
                       3.92857143E-01  0.00000000E+00  3.92857143E-01
                       4.10714286E-01  0.00000000E+00  4.10714286E-01
                       4.28571429E-01  0.00000000E+00  4.28571429E-01
                       4.46428571E-01  0.00000000E+00  4.46428571E-01
                       outvar_i_n : Printing only first  50 k-points.
           kptopt1          1
           kptopt2         -3
         kptrlatt        8    0    0      0    8    0      0    0    8
          kptrlen1     5.84601837E+01
          kptrlen2     3.00000000E+01
P           mkmem1         60
P           mkmem2         63
            natom           2
            nband1          5
            nband2         10
           nbdbuf1          0
           nbdbuf2          2
           ndtset           2
           ndivsm1          0
           ndivsm2         10
            ngfft          27      27      27
             nkpt1         60
             nkpt2         63
            nstep          50
             nsym          48
           ntypat           1
              occ      2.000000  2.000000  2.000000  2.000000  0.000000
            rprim      6.3285005244E+00  0.0000000000E+00  3.6537614813E+00
                       2.1095001748E+00  5.9665675141E+00  3.6537614813E+00
                       0.0000000000E+00  0.0000000000E+00  7.3075229627E+00
           shiftk      5.00000000E-01  5.00000000E-01  5.00000000E-01
          spgroup         227
           strten1     6.0202591771E-05  6.0202591749E-05  6.0202591752E-05
                       9.5693794483E-15  1.3533118515E-14  0.0000000000E+00
           symrel      1  0  0   0  1  0   0  0  1      -1  0  0   0 -1  0   0  0 -1
                       0 -1  1   0 -1  0   1 -1  0       0  1 -1   0  1  0  -1  1  0
                      -1  0  0  -1  0  1  -1  1  0       1  0  0   1  0 -1   1 -1  0
                       0  1 -1   1  0 -1   0  0 -1       0 -1  1  -1  0  1   0  0  1
                      -1  0  0  -1  1  0  -1  0  1       1  0  0   1 -1  0   1  0 -1
                       0 -1  1   1 -1  0   0 -1  0       0  1 -1  -1  1  0   0  1  0
                       1  0  0   0  0  1   0  1  0      -1  0  0   0  0 -1   0 -1  0
                       0  1 -1   0  0 -1   1  0 -1       0 -1  1   0  0  1  -1  0  1
                      -1  0  1  -1  1  0  -1  0  0       1  0 -1   1 -1  0   1  0  0
                       0 -1  0   1 -1  0   0 -1  1       0  1  0  -1  1  0   0  1 -1
                       1  0 -1   0  0 -1   0  1 -1      -1  0  1   0  0  1   0 -1  1
                       0  1  0   0  0  1   1  0  0       0 -1  0   0  0 -1  -1  0  0
                       1  0 -1   0  1 -1   0  0 -1      -1  0  1   0 -1  1   0  0  1
                       0 -1  0   0 -1  1   1 -1  0       0  1  0   0  1 -1  -1  1  0
                      -1  0  1  -1  0  0  -1  1  0       1  0 -1   1  0  0   1 -1  0
                       0  1  0   1  0  0   0  0  1       0 -1  0  -1  0  0   0  0 -1
                       0  0 -1   0  1 -1   1  0 -1       0  0  1   0 -1  1  -1  0  1
                       1 -1  0   0 -1  1   0 -1  0      -1  1  0   0  1 -1   0  1  0
                       0  0  1   1  0  0   0  1  0       0  0 -1  -1  0  0   0 -1  0
                      -1  1  0  -1  0  0  -1  0  1       1 -1  0   1  0  0   1  0 -1
                       0  0  1   0  1  0   1  0  0       0  0 -1   0 -1  0  -1  0  0
                       1 -1  0   0 -1  0   0 -1  1      -1  1  0   0  1  0   0  1 -1
                       0  0 -1   1  0 -1   0  1 -1       0  0  1  -1  0  1   0 -1  1
                      -1  1  0  -1  0  1  -1  0  0       1 -1  0   1  0 -1   1  0  0
            tnons      0.0000000  0.0000000  0.0000000     0.2500000  0.2500000  0.2500000
                       0.0000000  0.0000000  0.0000000     0.2500000  0.2500000  0.2500000
                       0.0000000  0.0000000  0.0000000     0.2500000  0.2500000  0.2500000
                       0.0000000  0.0000000  0.0000000     0.2500000  0.2500000  0.2500000
                       0.0000000  0.0000000  0.0000000     0.2500000  0.2500000  0.2500000
                       0.0000000  0.0000000  0.0000000     0.2500000  0.2500000  0.2500000
                       0.0000000  0.0000000  0.0000000     0.2500000  0.2500000  0.2500000
                       0.0000000  0.0000000  0.0000000     0.2500000  0.2500000  0.2500000
                       0.0000000  0.0000000  0.0000000     0.2500000  0.2500000  0.2500000
                       0.0000000  0.0000000  0.0000000     0.2500000  0.2500000  0.2500000
                       0.0000000  0.0000000  0.0000000     0.2500000  0.2500000  0.2500000
                       0.0000000  0.0000000  0.0000000     0.2500000  0.2500000  0.2500000
                       0.0000000  0.0000000  0.0000000     0.2500000  0.2500000  0.2500000
                       0.0000000  0.0000000  0.0000000     0.2500000  0.2500000  0.2500000
                       0.0000000  0.0000000  0.0000000     0.2500000  0.2500000  0.2500000
                       0.0000000  0.0000000  0.0000000     0.2500000  0.2500000  0.2500000
                       0.0000000  0.0000000  0.0000000     0.2500000  0.2500000  0.2500000
                       0.0000000  0.0000000  0.0000000     0.2500000  0.2500000  0.2500000
                       0.0000000  0.0000000  0.0000000     0.2500000  0.2500000  0.2500000
                       0.0000000  0.0000000  0.0000000     0.2500000  0.2500000  0.2500000
                       0.0000000  0.0000000  0.0000000     0.2500000  0.2500000  0.2500000
                       0.0000000  0.0000000  0.0000000     0.2500000  0.2500000  0.2500000
                       0.0000000  0.0000000  0.0000000     0.2500000  0.2500000  0.2500000
                       0.0000000  0.0000000  0.0000000     0.2500000  0.2500000  0.2500000
           toldfe1     1.00000000E-06 Hartree
           toldfe2     0.00000000E+00 Hartree
           tolwfr1     0.00000000E+00
           tolwfr2     1.00000000E-12
            typat      1  1
              wtk1       0.00391    0.01172    0.01172    0.01172    0.01172    0.01172
                         0.01172    0.01172    0.01172    0.02344    0.02344    0.02344
                         0.02344    0.02344    0.02344    0.01172    0.02344    0.02344
                         0.02344    0.02344    0.02344    0.01172    0.02344    0.02344
                         0.02344    0.02344    0.01172    0.02344    0.02344    0.01172
                         0.02344    0.01172    0.00391    0.01172    0.01172    0.01172
                         0.01172    0.01172    0.01172    0.02344    0.02344    0.02344
                         0.02344    0.01172    0.02344    0.02344    0.02344    0.01172
                         0.02344    0.01172
              wtk2       1.00000    1.00000    1.00000    1.00000    1.00000    1.00000
                         1.00000    1.00000    1.00000    1.00000    1.00000    1.00000
                         1.00000    1.00000    1.00000    1.00000    1.00000    1.00000
                         1.00000    1.00000    1.00000    1.00000    1.00000    1.00000
                         1.00000    1.00000    1.00000    1.00000    1.00000    1.00000
                         1.00000    1.00000    1.00000    1.00000    1.00000    1.00000
                         1.00000    1.00000    1.00000    1.00000    1.00000    1.00000
                         1.00000    1.00000    1.00000    1.00000    1.00000    1.00000
                         1.00000    1.00000
                       outvars : Printing only first  50 k-points.
           xangst      0.0000000000E+00  0.0000000000E+00  0.0000000000E+00
                       1.1162994140E+00  7.8934288549E-01  1.9334873015E+00
            xcart      0.0000000000E+00  0.0000000000E+00  0.0000000000E+00
                       2.1095001748E+00  1.4916418785E+00  3.6537614813E+00
             xred      0.0000000000E+00  0.0000000000E+00  0.0000000000E+00
                       2.5000000000E-01  2.5000000000E-01  2.5000000000E-01
            znucl       14.00000

================================================================================


- Timing analysis has been suppressed with timopt=0



================================================================================

 Suggested references for the acknowledgment of ABINIT usage.

 The users of ABINIT have little formal obligations with respect to the ABINIT group
 (those specified in the GNU General Public License, http://www.gnu.org/copyleft/gpl.txt).
 However, it is common practice in the scientific literature,
 to acknowledge the efforts of people that have made the research possible.
 In this spirit, please find below suggested citations of work written by ABINIT developers,
 corresponding to implementations inside of ABINIT that you have used in the present run.
 Note also that it will be of great value to readers of publications presenting these results,
 to read papers enabling them to understand the theoretical formalism and details
 of the ABINIT implementation.
 For information on why they are suggested, see also https://docs.abinit.org/theory/acknowledgments.
-
- [1] The Abinit project: Impact, environment and recent developments.
- Computer Phys. Comm. 248, 107042 (2020).
- X.Gonze, B. Amadon, G. Antonius, F.Arnardi, L.Baguet, J.-M.Beuken,
- J.Bieder, F.Bottin, J.Bouchet, E.Bousquet, N.Brouwer, F.Bruneval,
- G.Brunin, T.Cavignac, J.-B. Charraud, Wei Chen, M.Cote, S.Cottenier,
- J.Denier, G.Geneste, Ph.Ghosez, M.Giantomassi, Y.Gillet, O.Gingras,
- D.R.Hamann, G.Hautier, Xu He, N.Helbig, N.Holzwarth, Y.Jia, F.Jollet,
- W.Lafargue-Dit-Hauret, K.Lejaeghere, M.A.L.Marques, A.Martin, C.Martins,
- H.P.C. Miranda, F.Naccarato, K. Persson, G.Petretto, V.Planes, Y.Pouillon,
- S.Prokhorenko, F.Ricci, G.-M.Rignanese, A.H.Romero, M.M.Schmitt, M.Torrent,
- M.J.van Setten, B.Van Troeye, M.J.Verstraete, G.Zerah and J.W.Zwanzig
- Comment: the fifth generic paper describing the ABINIT project.
- Note that a version of this paper, that is not formatted for Computer Phys. Comm. 
- is available at https://www.abinit.org/sites/default/files/ABINIT20.pdf .
- The licence allows the authors to put it on the Web.
- DOI and bibtex: see https://docs.abinit.org/theory/bibliography/#gonze2020
-
- [2] Optimized norm-conserving Vanderbilt pseudopotentials.
- D.R. Hamann, Phys. Rev. B 88, 085117 (2013).
- Comment: Some pseudopotential generated using the ONCVPSP code were used.
- DOI and bibtex: see https://docs.abinit.org/theory/bibliography/#hamann2013
-
- [3] ABINIT: Overview, and focus on selected capabilities
- J. Chem. Phys. 152, 124102 (2020).
- A. Romero, D.C. Allan, B. Amadon, G. Antonius, T. Applencourt, L.Baguet,
- J.Bieder, F.Bottin, J.Bouchet, E.Bousquet, F.Bruneval,
- G.Brunin, D.Caliste, M.Cote,
- J.Denier, C. Dreyer, Ph.Ghosez, M.Giantomassi, Y.Gillet, O.Gingras,
- D.R.Hamann, G.Hautier, F.Jollet, G. Jomard,
- A.Martin, 
- H.P.C. Miranda, F.Naccarato, G.Petretto, N.A. Pike, V.Planes,
- S.Prokhorenko, T. Rangel, F.Ricci, G.-M.Rignanese, M.Royo, M.Stengel, M.Torrent,
- M.J.van Setten, B.Van Troeye, M.J.Verstraete, J.Wiktor, J.W.Zwanziger, and X.Gonze.
- Comment: a global overview of ABINIT, with focus on selected capabilities .
- Note that a version of this paper, that is not formatted for J. Chem. Phys 
- is available at https://www.abinit.org/sites/default/files/ABINIT20_JPC.pdf .
- The licence allows the authors to put it on the Web.
- DOI and bibtex: see https://docs.abinit.org/theory/bibliography/#romero2020
-
- [4] Recent developments in the ABINIT software package.
- Computer Phys. Comm. 205, 106 (2016).
- X.Gonze, F.Jollet, F.Abreu Araujo, D.Adams, B.Amadon, T.Applencourt,
- C.Audouze, J.-M.Beuken, J.Bieder, A.Bokhanchuk, E.Bousquet, F.Bruneval
- D.Caliste, M.Cote, F.Dahm, F.Da Pieve, M.Delaveau, M.Di Gennaro,
- B.Dorado, C.Espejo, G.Geneste, L.Genovese, A.Gerossier, M.Giantomassi,
- Y.Gillet, D.R.Hamann, L.He, G.Jomard, J.Laflamme Janssen, S.Le Roux,
- A.Levitt, A.Lherbier, F.Liu, I.Lukacevic, A.Martin, C.Martins,
- M.J.T.Oliveira, S.Ponce, Y.Pouillon, T.Rangel, G.-M.Rignanese,
- A.H.Romero, B.Rousseau, O.Rubel, A.A.Shukri, M.Stankovski, M.Torrent,
- M.J.Van Setten, B.Van Troeye, M.J.Verstraete, D.Waroquier, J.Wiktor,
- B.Xu, A.Zhou, J.W.Zwanziger.
- Comment: the fourth generic paper describing the ABINIT project.
- Note that a version of this paper, that is not formatted for Computer Phys. Comm. 
- is available at https://www.abinit.org/sites/default/files/ABINIT16.pdf .
- The licence allows the authors to put it on the Web.
- DOI and bibtex: see https://docs.abinit.org/theory/bibliography/#gonze2016
-
- And optionally:
-
- [5] ABINIT: First-principles approach of materials and nanosystem properties.
- Computer Phys. Comm. 180, 2582-2615 (2009).
- X. Gonze, B. Amadon, P.-M. Anglade, J.-M. Beuken, F. Bottin, P. Boulanger, F. Bruneval,
- D. Caliste, R. Caracas, M. Cote, T. Deutsch, L. Genovese, Ph. Ghosez, M. Giantomassi
- S. Goedecker, D.R. Hamann, P. Hermet, F. Jollet, G. Jomard, S. Leroux, M. Mancini, S. Mazevet,
- M.J.T. Oliveira, G. Onida, Y. Pouillon, T. Rangel, G.-M. Rignanese, D. Sangalli, R. Shaltaf,
- M. Torrent, M.J. Verstraete, G. Zerah, J.W. Zwanziger
- Comment: the third generic paper describing the ABINIT project.
- Note that a version of this paper, that is not formatted for Computer Phys. Comm. 
- is available at https://www.abinit.org/sites/default/files/ABINIT_CPC_v10.pdf .
- The licence allows the authors to put it on the Web.
- DOI and bibtex: see https://docs.abinit.org/theory/bibliography/#gonze2009
-
- Proc.   0 individual time (sec): cpu=          9.6  wall=          9.6

================================================================================

 Calculation completed.
.Delivered   2 WARNINGs and   7 COMMENTs to log file.
+Overall time at end (sec) : cpu=          9.6  wall=          9.6
